   3   3   0   0
  0.1706667E+03  0.8000000E-09  0.8000000E-09  0.8000000E-09  0.5000000E-15
  1.000000000000000E-004
  CAR 
 unknown system                          
      3.73248955    -27.16767201  301     -6.87495142      1.00000000
    -27.168  0.0000E+00  0.0000E+00
    -27.065  0.0000E+00  0.0000E+00
    -26.962  0.0000E+00  0.0000E+00
    -26.859 -0.4162E-29 -0.4287E-30
    -26.756 -0.1815E-25 -0.1870E-26
    -26.653 -0.4637E-22 -0.4778E-23
    -26.550 -0.6936E-19 -0.7149E-20
    -26.447 -0.6069E-16 -0.6258E-17
    -26.344 -0.2995E-13 -0.3091E-14
    -26.241 -0.8940E-11 -0.9239E-12
    -26.138 -0.1541E-08 -0.1596E-09
    -26.035 -0.1538E-06 -0.1600E-07
    -25.932 -0.8830E-05 -0.9255E-06
    -25.829 -0.2889E-03 -0.3069E-04
    -25.726 -0.5293E-02 -0.5758E-03
    -25.623 -0.5230E-01 -0.5962E-02
    -25.520 -0.2531E+00 -0.3203E-01
    -25.417 -0.3763E+00 -0.7079E-01
    -25.314  0.1272E+01  0.6021E-01
    -25.211  0.5681E+01  0.6453E+00
    -25.108  0.8136E+01  0.1483E+01
    -25.005  0.4895E+01  0.1988E+01
    -24.902  0.7802E+00  0.2068E+01
    -24.799 -0.4121E+00  0.2026E+01
    -24.696 -0.2067E+00  0.2004E+01
    -24.593 -0.3748E-01  0.2000E+01
    -24.490 -0.3411E-02  0.2000E+01
    -24.387 -0.1689E-03  0.2000E+01
    -24.284 -0.4698E-05  0.2000E+01
    -24.181 -0.7463E-07  0.2000E+01
    -24.078 -0.6831E-09  0.2000E+01
    -23.975 -0.3622E-11  0.2000E+01
    -23.872 -0.1293E-13  0.2000E+01
    -23.769  0.0000E+00  0.2000E+01
    -23.666  0.0000E+00  0.2000E+01
    -23.563  0.0000E+00  0.2000E+01
    -23.460  0.0000E+00  0.2000E+01
    -23.357  0.0000E+00  0.2000E+01
    -23.254  0.0000E+00  0.2000E+01
    -23.151  0.0000E+00  0.2000E+01
    -23.048  0.0000E+00  0.2000E+01
    -22.945  0.0000E+00  0.2000E+01
    -22.842  0.0000E+00  0.2000E+01
    -22.739  0.0000E+00  0.2000E+01
    -22.636  0.0000E+00  0.2000E+01
    -22.533  0.0000E+00  0.2000E+01
    -22.430  0.0000E+00  0.2000E+01
    -22.327  0.0000E+00  0.2000E+01
    -22.224  0.0000E+00  0.2000E+01
    -22.121  0.0000E+00  0.2000E+01
    -22.018  0.0000E+00  0.2000E+01
    -21.915  0.0000E+00  0.2000E+01
    -21.812  0.0000E+00  0.2000E+01
    -21.709  0.0000E+00  0.2000E+01
    -21.606  0.0000E+00  0.2000E+01
    -21.503  0.0000E+00  0.2000E+01
    -21.400  0.0000E+00  0.2000E+01
    -21.297  0.0000E+00  0.2000E+01
    -21.194  0.0000E+00  0.2000E+01
    -21.091  0.0000E+00  0.2000E+01
    -20.988  0.0000E+00  0.2000E+01
    -20.885  0.0000E+00  0.2000E+01
    -20.782  0.0000E+00  0.2000E+01
    -20.679  0.0000E+00  0.2000E+01
    -20.576  0.0000E+00  0.2000E+01
    -20.473  0.0000E+00  0.2000E+01
    -20.370  0.0000E+00  0.2000E+01
    -20.267  0.0000E+00  0.2000E+01
    -20.164  0.0000E+00  0.2000E+01
    -20.061  0.0000E+00  0.2000E+01
    -19.958  0.0000E+00  0.2000E+01
    -19.855  0.0000E+00  0.2000E+01
    -19.752  0.0000E+00  0.2000E+01
    -19.649  0.0000E+00  0.2000E+01
    -19.546  0.0000E+00  0.2000E+01
    -19.443  0.0000E+00  0.2000E+01
    -19.340  0.0000E+00  0.2000E+01
    -19.237  0.0000E+00  0.2000E+01
    -19.134  0.0000E+00  0.2000E+01
    -19.031  0.0000E+00  0.2000E+01
    -18.928  0.0000E+00  0.2000E+01
    -18.825  0.0000E+00  0.2000E+01
    -18.722  0.0000E+00  0.2000E+01
    -18.619  0.0000E+00  0.2000E+01
    -18.516  0.0000E+00  0.2000E+01
    -18.413  0.0000E+00  0.2000E+01
    -18.310  0.0000E+00  0.2000E+01
    -18.207  0.0000E+00  0.2000E+01
    -18.104  0.0000E+00  0.2000E+01
    -18.001  0.0000E+00  0.2000E+01
    -17.898  0.0000E+00  0.2000E+01
    -17.795  0.0000E+00  0.2000E+01
    -17.692  0.0000E+00  0.2000E+01
    -17.589  0.0000E+00  0.2000E+01
    -17.486  0.0000E+00  0.2000E+01
    -17.383  0.0000E+00  0.2000E+01
    -17.280  0.0000E+00  0.2000E+01
    -17.177  0.0000E+00  0.2000E+01
    -17.074  0.0000E+00  0.2000E+01
    -16.971  0.0000E+00  0.2000E+01
    -16.868  0.0000E+00  0.2000E+01
    -16.765  0.0000E+00  0.2000E+01
    -16.662  0.0000E+00  0.2000E+01
    -16.559  0.0000E+00  0.2000E+01
    -16.456  0.0000E+00  0.2000E+01
    -16.353  0.0000E+00  0.2000E+01
    -16.250  0.0000E+00  0.2000E+01
    -16.147  0.0000E+00  0.2000E+01
    -16.044  0.0000E+00  0.2000E+01
    -15.941  0.0000E+00  0.2000E+01
    -15.838  0.0000E+00  0.2000E+01
    -15.735  0.0000E+00  0.2000E+01
    -15.632  0.0000E+00  0.2000E+01
    -15.529  0.0000E+00  0.2000E+01
    -15.426  0.0000E+00  0.2000E+01
    -15.323  0.0000E+00  0.2000E+01
    -15.220  0.0000E+00  0.2000E+01
    -15.117  0.0000E+00  0.2000E+01
    -15.014  0.0000E+00  0.2000E+01
    -14.911  0.0000E+00  0.2000E+01
    -14.808  0.0000E+00  0.2000E+01
    -14.705  0.0000E+00  0.2000E+01
    -14.602 -0.1803E-28  0.2000E+01
    -14.499 -0.7177E-25  0.2000E+01
    -14.396 -0.1674E-21  0.2000E+01
    -14.293 -0.2285E-18  0.2000E+01
    -14.190 -0.1825E-15  0.2000E+01
    -14.087 -0.8296E-13  0.2000E+01
    -13.984 -0.2234E-10  0.2000E+01
    -13.881 -0.3509E-08  0.2000E+01
    -13.778 -0.3189E-06  0.2000E+01
    -13.675 -0.1665E-04  0.2000E+01
    -13.572 -0.4945E-03  0.2000E+01
    -13.469 -0.8181E-02  0.1999E+01
    -13.366 -0.7228E-01  0.1992E+01
    -13.263 -0.3030E+00  0.1960E+01
    -13.160 -0.2896E+00  0.1931E+01
    -13.057  0.1876E+01  0.2124E+01
    -12.954  0.6434E+01  0.2787E+01
    -12.851  0.7944E+01  0.3605E+01
    -12.748  0.4067E+01  0.4024E+01
    -12.645  0.3732E+00  0.4062E+01
    -12.542 -0.4122E+00  0.4020E+01
    -12.439 -0.1634E+00  0.4003E+01
    -12.336 -0.2607E-01  0.4000E+01
    -12.233 -0.2131E-02  0.4000E+01
    -12.130 -0.9549E-04  0.4000E+01
    -12.027 -0.2412E-05  0.4000E+01
    -11.924 -0.3487E-07  0.4000E+01
    -11.821 -0.2907E-09  0.4000E+01
    -11.718 -0.1406E-11  0.4000E+01
    -11.615 -0.4312E-14  0.4000E+01
    -11.512  0.0000E+00  0.4000E+01
    -11.409  0.0000E+00  0.4000E+01
    -11.306  0.0000E+00  0.4000E+01
    -11.203  0.0000E+00  0.4000E+01
    -11.100  0.0000E+00  0.4000E+01
    -10.997  0.0000E+00  0.4000E+01
    -10.894  0.0000E+00  0.4000E+01
    -10.791 -0.2250E-28  0.4000E+01
    -10.688 -0.8834E-25  0.4000E+01
    -10.585 -0.2032E-21  0.4000E+01
    -10.482 -0.2736E-18  0.4000E+01
    -10.379 -0.2154E-15  0.4000E+01
    -10.276 -0.9586E-13  0.4000E+01
    -10.173 -0.2564E-10  0.4000E+01
    -10.070 -0.3972E-08  0.4000E+01
     -9.967 -0.3558E-06  0.4000E+01
     -9.864 -0.1831E-04  0.4000E+01
     -9.761 -0.5357E-03  0.4000E+01
     -9.658 -0.8727E-02  0.3999E+01
     -9.555 -0.7579E-01  0.3991E+01
     -9.452 -0.3105E+00  0.3959E+01
     -9.349 -0.2711E+00  0.3931E+01
     -9.246  0.1977E+01  0.4135E+01
     -9.143  0.6541E+01  0.4809E+01
     -9.040  0.7898E+01  0.5622E+01
     -8.937  0.3942E+01  0.6028E+01
     -8.834  0.3200E+00  0.6061E+01
     -8.731 -0.4098E+00  0.6019E+01
     -8.628 -0.1573E+00  0.6003E+01
     -8.525 -0.2463E-01  0.6000E+01
     -8.422 -0.1981E-02  0.6000E+01
     -8.319 -0.8743E-04  0.6000E+01
     -8.216 -0.2177E-05  0.6000E+01
     -8.113 -0.3102E-07  0.6000E+01
     -8.010 -0.2094E-08  0.6000E+01
     -7.907 -0.1799E-06  0.6000E+01
     -7.804 -0.1013E-04  0.6000E+01
     -7.701 -0.3246E-03  0.6000E+01
     -7.598 -0.5817E-02  0.5999E+01
     -7.495 -0.5614E-01  0.5994E+01
     -7.392 -0.2637E+00  0.5966E+01
     -7.289 -0.3625E+00  0.5929E+01
     -7.186  0.1393E+01  0.6073E+01
     -7.083  0.5848E+01  0.6675E+01
     -6.980  0.8111E+01  0.7510E+01
     -6.877  0.4718E+01  0.7996E+01
     -6.774  0.6848E+00  0.8067E+01
     -6.671 -0.4148E+00  0.8024E+01
     -6.568 -0.1970E+00  0.8004E+01
     -6.465 -0.3474E-01  0.8000E+01
     -6.362 -0.3089E-02  0.8000E+01
     -6.259 -0.1497E-03  0.8000E+01
     -6.156 -0.4080E-05  0.8000E+01
     -6.053 -0.6352E-07  0.8000E+01
     -5.950 -0.5699E-09  0.8000E+01
     -5.847 -0.2962E-11  0.8000E+01
     -5.744 -0.8623E-14  0.8000E+01
     -5.641  0.0000E+00  0.8000E+01
     -5.538  0.0000E+00  0.8000E+01
     -5.435  0.0000E+00  0.8000E+01
     -5.332  0.0000E+00  0.8000E+01
     -5.229  0.0000E+00  0.8000E+01
     -5.126  0.0000E+00  0.8000E+01
     -5.023  0.0000E+00  0.8000E+01
     -4.920  0.0000E+00  0.8000E+01
     -4.817  0.0000E+00  0.8000E+01
     -4.714  0.0000E+00  0.8000E+01
     -4.611  0.0000E+00  0.8000E+01
     -4.508  0.0000E+00  0.8000E+01
     -4.405  0.0000E+00  0.8000E+01
     -4.302  0.0000E+00  0.8000E+01
     -4.199  0.0000E+00  0.8000E+01
     -4.096  0.0000E+00  0.8000E+01
     -3.993  0.0000E+00  0.8000E+01
     -3.890  0.0000E+00  0.8000E+01
     -3.787  0.0000E+00  0.8000E+01
     -3.684  0.0000E+00  0.8000E+01
     -3.581  0.0000E+00  0.8000E+01
     -3.478  0.0000E+00  0.8000E+01
     -3.375  0.0000E+00  0.8000E+01
     -3.272  0.0000E+00  0.8000E+01
     -3.169  0.0000E+00  0.8000E+01
     -3.066  0.0000E+00  0.8000E+01
     -2.963  0.0000E+00  0.8000E+01
     -2.860  0.0000E+00  0.8000E+01
     -2.757 -0.8117E-29  0.8000E+01
     -2.654 -0.3396E-25  0.8000E+01
     -2.551 -0.8325E-22  0.8000E+01
     -2.448 -0.1195E-18  0.8000E+01
     -2.345 -0.1003E-15  0.8000E+01
     -2.242 -0.4809E-13  0.8000E+01
     -2.139 -0.1358E-10  0.8000E+01
     -2.036 -0.2244E-08  0.8000E+01
     -1.933 -0.2146E-06  0.8000E+01
     -1.830 -0.1180E-04  0.8000E+01
     -1.727 -0.3696E-03  0.8000E+01
     -1.624 -0.6465E-02  0.7999E+01
     -1.521 -0.6074E-01  0.7993E+01
     -1.418 -0.2757E+00  0.7965E+01
     -1.315 -0.3440E+00  0.7929E+01
     -1.212  0.1535E+01  0.8087E+01
     -1.109  0.6033E+01  0.8709E+01
     -1.006  0.8073E+01  0.9540E+01
     -0.903  0.4519E+01  0.1001E+02
     -0.800  0.5829E+00  0.1007E+02
     -0.697 -0.4160E+00  0.1002E+02
     -0.594 -0.1864E+00  0.1000E+02
     -0.491 -0.3186E-01  0.1000E+02
     -0.388 -0.2761E-02  0.1000E+02
     -0.285 -0.1306E-03  0.1000E+02
     -0.182 -0.3478E-05  0.1000E+02
     -0.079 -0.5292E-07  0.1000E+02
      0.024 -0.4693E-09  0.1000E+02
      0.127 -0.9144E-09  0.1000E+02
      0.230 -0.9681E-07  0.1000E+02
      0.333 -0.5933E-05  0.1000E+02
      0.436 -0.2083E-03  0.1000E+02
      0.539 -0.4140E-02  0.1000E+02
      0.642 -0.4539E-01  0.9995E+01
      0.745 -0.2582E+00  0.9968E+01
      0.848 -0.6047E+00  0.9906E+01
      0.951  0.5269E+00  0.9960E+01
      1.054  0.5892E+01  0.1057E+02
      1.157  0.1294E+02  0.1190E+02
      1.260  0.1350E+02  0.1329E+02
      1.363  0.6671E+01  0.1398E+02
      1.466  0.5429E+00  0.1403E+02
      1.569  0.1759E+00  0.1405E+02
      1.672  0.4589E+01  0.1452E+02
      1.775  0.8077E+01  0.1536E+02
      1.878  0.5675E+01  0.1594E+02
      1.981  0.1272E+01  0.1607E+02
      2.084 -0.3763E+00  0.1603E+02
      2.187 -0.2531E+00  0.1601E+02
      2.290 -0.5230E-01  0.1600E+02
      2.393 -0.5293E-02  0.1600E+02
      2.496 -0.2889E-03  0.1600E+02
      2.599 -0.8830E-05  0.1600E+02
      2.702 -0.1538E-06  0.1600E+02
      2.805 -0.1541E-08  0.1600E+02
      2.908 -0.8938E-11  0.1600E+02
      3.011 -0.3018E-13  0.1600E+02
      3.114  0.0000E+00  0.1600E+02
      3.217  0.0000E+00  0.1600E+02
      3.320  0.0000E+00  0.1600E+02
      3.423  0.0000E+00  0.1600E+02
      3.526  0.0000E+00  0.1600E+02
      3.629  0.0000E+00  0.1600E+02
      3.732  0.0000E+00  0.1600E+02
