    3    3    1    1
  0.1706667E+03  0.8000000E-09  0.8000000E-09  0.8000000E-09  0.5000000E-15
  1.000000000000000E-004
  CAR 
 unknown system                          
    8    1    8
 
  0.0000000E+00  0.0000000E+00  0.0000000E+00  0.1000000E+01
   1      -25.167672
   2      -12.928160
   3       -9.119809
   4       -7.043328
   5       -1.073520
   6        1.108547
   7        1.219878
   8        1.732490
