 vasp.5.2.12 11Nov11 complex                                                    
  
 executed on             LinuxIFC date 2012.10.31  04:26:50
 running on    1 nodes
 distr:  one band on    1 nodes,    1 groups


--------------------------------------------------------------------------------------------------------


 INCAR:
 POTCAR:   PAW_PBE H 15Jun2001                    
 POTCAR:   PAW_PBE O 08Apr2002                    
 POTCAR:   PAW_PBE H 15Jun2001                    
   VRHFIN =H: ultrasoft test                                                    
   LEXCH  = PE                                                                  
   EATOM  =    12.4884 eV,     .9179 Ry                                         
                                                                                
   TITEL  = PAW_PBE H 15Jun2001                                                 
   LULTRA =        F    use ultrasoft PP ?                                      
   IUNSCR =        0    unscreen: 0-lin 1-nonlin 2-no                           
   RPACOR =     .000    partial core radius                                     
   POMASS =    1.000; ZVAL   =    1.000    mass and valenz                      
   RCORE  =    1.100    outmost cutoff radius                                   
   RWIGS  =     .700; RWIGS  =     .370    wigner-seitz radius (au A)           
   ENMAX  =  250.000; ENMIN  =  200.000 eV                                      
   RCLOC  =     .701    cutoff for local pot                                    
   LCOR   =        T    correct aug charges                                     
   LPAW   =        T    paw PP                                                  
   EAUG   =  400.000                                                            
   RMAX   =    2.174    core radius for proj-oper                               
   RAUG   =    1.200    factor for augmentation sphere                          
   RDEP   =    1.112    radius for radial grids                                 
   QCUT   =   -5.749; QGAM   =   11.498    optimization parameters              
                                                                                
   Description                                                                  
     l     E      TYP  RCUT    TYP  RCUT                                        
     0   .000     23  1.100                                                     
     0   .500     23  1.100                                                     
     1  -.300     23  1.100                                                     
  local pseudopotential read in
  atomic valenz-charges read in
  non local Contribution for L=           0  read in
    real space projection operators read in
  non local Contribution for L=           0  read in
    real space projection operators read in
  non local Contribution for L=           1  read in
    real space projection operators read in
    PAW grid and wavefunctions read in
 
   number of l-projection  operators is LMAX  =           3
   number of lm-projection operators is LMMAX =           5
 
 POTCAR:   PAW_PBE O 08Apr2002                    
   VRHFIN =O: s2p4                                                              
   LEXCH  = PE                                                                  
   EATOM  =   432.3788 eV,   31.7789 Ry                                         
                                                                                
   TITEL  = PAW_PBE O 08Apr2002                                                 
   LULTRA =        F    use ultrasoft PP ?                                      
   IUNSCR =        0    unscreen: 0-lin 1-nonlin 2-no                           
   RPACOR =     .000    partial core radius                                     
   POMASS =   16.000; ZVAL   =    6.000    mass and valenz                      
   RCORE  =    1.520    outmost cutoff radius                                   
   RWIGS  =    1.550; RWIGS  =     .820    wigner-seitz radius (au A)           
   ENMAX  =  400.000; ENMIN  =  300.000 eV                                      
   ICORE  =        2    local potential                                         
   LCOR   =        T    correct aug charges                                     
   LPAW   =        T    paw PP                                                  
   EAUG   =  605.392                                                            
   DEXC   =     .000                                                            
   RMAX   =    2.264    core radius for proj-oper                               
   RAUG   =    1.300    factor for augmentation sphere                          
   RDEP   =    1.550    radius for radial grids                                 
   QCUT   =   -5.520; QGAM   =   11.041    optimization parameters              
                                                                                
   Description                                                                  
     l     E      TYP  RCUT    TYP  RCUT                                        
     0   .000     23  1.200                                                     
     0  -.700     23  1.200                                                     
     1   .000     23  1.520                                                     
     1   .600     23  1.520                                                     
     2   .000      7  1.500                                                     
  local pseudopotential read in
  atomic valenz-charges read in
  non local Contribution for L=           0  read in
    real space projection operators read in
  non local Contribution for L=           0  read in
    real space projection operators read in
  non local Contribution for L=           1  read in
    real space projection operators read in
  non local Contribution for L=           1  read in
    real space projection operators read in
    PAW grid and wavefunctions read in
 
   number of l-projection  operators is LMAX  =           4
   number of lm-projection operators is LMMAX =           8
 
 PAW_PBE H 15Jun2001                    :
 energy of atom  1       EATOM=  -12.4884
 kinetic energy error for atom=    0.0203 (will be added to EATOM!!)
 PAW_PBE O 08Apr2002                    :
 energy of atom  2       EATOM= -432.3788
 kinetic energy error for atom=    0.3782 (will be added to EATOM!!)
 
 
 POSCAR:  H  O                                   
  positions in cartesian coordinates
  No initial velocities read in
 exchange correlation table for  LEXCH =        8
   RHO(1)=    0.500       N(1)  =     2000
   RHO(2)=  100.500       N(2)  =     4000
 


--------------------------------------------------------------------------------------------------------


 ion  position               nearest neighbor table
   1  0.537  0.404  0.500-   3 0.97
   2  0.537  0.596  0.500-   3 0.97
   3  0.463  0.500  0.500-   1 0.97   2 0.97
 
  LATTYP: Found a simple cubic cell.
 ALAT       =     8.0000000000
  
  Lattice vectors:
  
 A1 = (   8.0000000000,   0.0000000000,   0.0000000000)
 A2 = (   0.0000000000,   8.0000000000,   0.0000000000)
 A3 = (   0.0000000000,   0.0000000000,   8.0000000000)
 Subroutine PRICEL returns:
 Original cell was already a primitive cell.
 

Analysis of symmetry for initial positions (statically):

 Routine SETGRP: Setting up the symmetry group for a 
 simple cubic supercell.


 Subroutine GETGRP returns: Found  4 space group operations
 (whereof  4 operations were pure point group operations)
 out of a pool of 48 trial point group operations.


The static configuration has the point symmetry C_2v.

Analysis of symmetry for dynamics (positions and initial velocities):

 Subroutine DYNSYM returns: Found  4 space group operations
 (whereof  4 operations were pure point group operations)
 out of a pool of  4 trial space group operations
 (whereof  4 operations were pure point group operations)
 and found also     1 'primitive' translations


The dynamic configuration has the point symmetry C_2v.
 
 
 KPOINTS: KPOINTS created by Atomic Simulation Env

Automatic generation of k-mesh.
 
 Subroutine IBZKPT returns following result:
 ===========================================
 
 Found      1 irreducible k-points:
 
 Following reciprocal coordinates:
            Coordinates               Weight
  0.000000  0.000000  0.000000      1.000000
 
 Following cartesian coordinates:
            Coordinates               Weight
  0.000000  0.000000  0.000000      1.000000
 


--------------------------------------------------------------------------------------------------------




 Dimension of arrays:
   k-points           NKPTS =      1   k-points in BZ     NKDIM =      1   number of bands    NBANDS=      8
   number of dos      NEDOS =    301   number of ions     NIONS =      3
   non local maximal  LDIM  =      4   non local SUM 2l+1 LMDIM =      8
   total plane-waves  NPLWV =  64000
   max r-space proj   IRMAX =      1   max aug-charges    IRDMAX=   1821
   dimension x,y,z NGX =    40 NGY =   40 NGZ =   40
   dimension x,y,z NGXF=    80 NGYF=   80 NGZF=   80
   support grid    NGXF=    80 NGYF=   80 NGZF=   80
   ions per type =               2   1
 NGX,Y,Z   is equivalent  to a cutoff of   8.31,  8.31,  8.31 a.u.
 NGXF,Y,Z  is equivalent  to a cutoff of  16.62, 16.62, 16.62 a.u.


 I would recommend the setting:
   dimension x,y,z NGX =    37 NGY =   37 NGZ =   37
 SYSTEM =  unknown system                          
 POSCAR =   H  O                                   

 Startparameter for this run:
   NWRITE =      2    write-flag & timer
   PREC   = normal    normal or accurate (medium, high low for compatibility)
   ISTART =      0    job   : 0-new  1-cont  2-samecut
   ICHARG =      2    charge: 1-file 2-atom 10-const
   ISPIN  =      1    spin polarized calculation?
   LNONCOLLINEAR =      F non collinear calculations
   LSORBIT =      F    spin-orbit coupling
   INIWAV =      1    electr: 0-lowe 1-rand  2-diag
   LASPH  =      F    aspherical Exc in radial PAW
   METAGGA=      F    non-selfconsistent MetaGGA calc.

 Electronic Relaxation 1
   ENCUT  =  350.0 eV  25.72 Ry    5.07 a.u.  12.20 12.20 12.20*2*pi/ulx,y,z
   ENINI  =  350.0     initial cutoff
   ENAUG  =  605.4 eV  augmentation charge cutoff
   NELM   =     60;   NELMIN=  2; NELMDL= -5     # of ELM steps 
   EDIFF  = 0.1E-03   stopping-criterion for ELM
   LREAL  =      F    real-space projection
   NLSPLINE    = F    spline interpolate recip. space projectors
   LCOMPAT=      F    compatible to vasp.4.4
   GGA_COMPAT  = T    GGA compatible to vasp.4.4-vasp.4.6
   LMAXPAW     = -100 max onsite density
   LMAXMIX     =    2 max onsite mixed and CHGCAR
   VOSKOWN=      0    Vosko Wilk Nusair interpolation
   ROPT   =    0.00000   0.00000
 Ionic relaxation
   EDIFFG = 0.1E-02   stopping-criterion for IOM
   NSW    =      0    number of steps for IOM
   NBLOCK =      1;   KBLOCK =      1    inner block; outer block 
   IBRION =     -1    ionic relax: 0-MD 1-quasi-New 2-CG
   NFREE  =      0    steps in history (QN), initial steepest desc. (CG)
   ISIF   =      2    stress and relaxation
   IWAVPR =     10    prediction:  0-non 1-charg 2-wave 3-comb
   ISYM   =      2    0-nonsym 1-usesym 2-fastsym
   LCORR  =      T    Harris-Foulkes like correction to forces

   POTIM  = 0.5000    time-step for ionic-motion
   TEIN   =    0.0    initial temperature
   TEBEG  =    0.0;   TEEND  =   0.0 temperature during run
   SMASS  =  -3.00    Nose mass-parameter (am)
   estimated Nose-frequenzy (Omega)   =  0.10E-29 period in steps =****** mass=  -0.146E-26a.u.
   SCALEE = 1.0000    scale energy and forces
   NPACO  =    256;   APACO  = 16.0  distance and # of slots for P.C.
   PSTRESS=    0.0 pullay stress

  Mass of Ions in am
   POMASS =   1.00 16.00
  Ionic Valenz
   ZVAL   =   1.00  6.00
  Atomic Wigner-Seitz radii
   RWIGS  =  -1.00 -1.00
  virtual crystal weights 
   VCA    =   1.00  1.00
   NELECT =       8.0000    total number of electrons
   NUPDOWN=      -1.0000    fix difference up-down

 DOS related values:
   EMIN   =  10.00;   EMAX   =-10.00  energy-range for DOS
   EFERMI =   0.00
   ISMEAR =     1;   SIGMA  =   0.20  broadening in eV -4-tet -1-fermi 0-gaus

 Electronic relaxation 2 (details)
   IALGO  =     38    algorithm
   LDIAG  =      T    sub-space diagonalisation (order eigenvalues)
   LSUBROT=      T    optimize rotation matrix (better conditioning)
   TURBO    =      0    0=normal 1=particle mesh
   IRESTART =      0    0=no restart 2=restart with 2 vectors
   NREBOOT  =      0    no. of reboots
   NMIN     =      0    reboot dimension
   EREF     =   0.00    reference energy to select bands
   IMIX   =      4    mixing-type and parameters
     AMIX     =   0.40;   BMIX     =  1.00
     AMIX_MAG =   1.60;   BMIX_MAG =  1.00
     AMIN     =   0.10
     WC   =   100.;   INIMIX=   1;  MIXPRE=   1

 Intra band minimization:
   WEIMIN = 0.0000     energy-eigenvalue tresh-hold
   EBREAK =  0.31E-05  absolut break condition
   DEPER  =   0.30     relativ break condition  

   TIME   =   0.40     timestep for ELM

  volume/ion in A,a.u.               =     170.67      1151.72
  Fermi-wavevector in a.u.,A,eV,Ry     =   0.409275  0.773417  2.279054  0.167506
  Thomas-Fermi vector in A             =   1.364147
 
 Write flags
   LWAVE  =      T    write WAVECAR
   LCHARG =      T    write CHGCAR
   LVTOT  =      F    write LOCPOT, total local potential
   LVHAR  =      F    write LOCPOT, Hartree potential only
   LELF   =      F    write electronic localiz. function (ELF)
   LORBIT =      0    0 simple, 1 ext, 2 COOP (PROOUT)


 Dipole corrections
   LMONO  =      F    monopole corrections only (constant potential shift)
   LDIPOL =      F    correct potential (dipole corrections)
   IDIPOL =      0    1-x, 2-y, 3-z, 4-all directions 
   EPSILON=  1.0000000 bulk dielectric constant

 Exchange correlation treatment:
   GGA     =    --    GGA type
   LEXCH   =     8    internal setting for exchange type
   VOSKOWN=      0    Vosko Wilk Nusair interpolation
   LHFCALC =     F    Hartree Fock is set to
   LHFONE  =     F    Hartree Fock one center treatment
   AEXX    =    0.0000 exact exchange contribution

 Linear response parameters
   LEPSILON=     F    determine dielectric tensor
   LRPA    =     F    only Hartree local field effects (RPA)
   LNABLA  =     F    use nabla operator in PAW spheres
   LVEL    =     F    velocity operator in full k-point grid
   LINTERFAST=   F  fast interpolation
   KINTER  =     0    interpolate to denser k-point grid
   CSHIFT  =0.1000    complex shift for real part using Kramers Kronig
   OMEGAMAX=  -1.0    maximum frequency
   RTIME   =    0.100 relaxation time in fs

 Orbital magnetization related:
   ORBITALMAG=     F  switch on orbital magnetization
   LCHIMAG   =     F  perturbation theory with respect to B field
   DQ        =  0.001000  dq finite difference perturbation B field



--------------------------------------------------------------------------------------------------------


 Static calculation
 charge density and potential will be updated during run
 non-spin polarized calculation
 Variant of blocked Davidson
 Davidson routine will perform the subspace rotation
 perform sub-space diagonalisation
    after iterative eigenvector-optimisation
 modified Broyden-mixing scheme, WC =      100.0
 initial mixing is a Kerker type mixing with AMIX =  0.4000 and BMIX =      1.0000
 Hartree-type preconditioning will be used
 using additional bands            4
 reciprocal scheme for non local part
 calculate Harris-corrections to forces 
   (improved forces if not selfconsistent)
 use gradient corrections 
 use of overlap-Matrix (Vanderbilt PP)
 Methfessel and Paxton  Order N= 1 SIGMA  =   0.20


--------------------------------------------------------------------------------------------------------


  energy-cutoff  :      350.00
  volume of cell :      512.00
      direct lattice vectors                 reciprocal lattice vectors
     8.000000000  0.000000000  0.000000000     0.125000000  0.000000000  0.000000000
     0.000000000  8.000000000  0.000000000     0.000000000  0.125000000  0.000000000
     0.000000000  0.000000000  8.000000000     0.000000000  0.000000000  0.125000000

  length of vectors
     8.000000000  8.000000000  8.000000000     0.125000000  0.125000000  0.125000000


 
 k-points in units of 2pi/SCALE and weight: KPOINTS created by Atomic Simulation Env
   0.00000000  0.00000000  0.00000000       1.000
 
 k-points in reciprocal lattice and weights: KPOINTS created by Atomic Simulation Env
   0.00000000  0.00000000  0.00000000       1.000
 
 position of ions in fractional coordinates (direct lattice) 
   0.53725507  0.40403665  0.50000000
   0.53725507  0.59596335  0.50000000
   0.46274493  0.50000000  0.50000000
 
 position of ions in cartesian coordinates  (Angst):
   4.29804060  3.23229320  4.00000000
   4.29804060  4.76770680  4.00000000
   3.70195940  4.00000000  4.00000000
 


--------------------------------------------------------------------------------------------------------


 k-point  1 :  0.00000.00000.0000  plane waves:    7521

 maximum and minimum number of plane-waves per node :      7521     7521

 maximum number of plane-waves:      7521
 maximum index in each direction: 
   IXMAX=   12   IYMAX=   12   IZMAX=   12
   IXMIN=  -12   IYMIN=  -12   IZMIN=  -12

 WARNING: aliasing errors must be expected set NGX to  50 to avoid them
 WARNING: aliasing errors must be expected set NGY to  50 to avoid them
 WARNING: aliasing errors must be expected set NGZ to  50 to avoid them
 aliasing errors are usually negligible using standard VASP settings
 and one can safely disregard these warnings

 serial   3D FFT for wavefunctions
 parallel 3D FFT for charge:
    minimum data exchange during FFTs selected (reduces bandwidth)


 total amount of memory used by VASP on root node    81929. kBytes
========================================================================

   base      :      30000. kBytes
   nonl-proj :       1323. kBytes
   fftplans  :      17864. kBytes
   grid      :      31769. kBytes
   one-center:          9. kBytes
   wavefun   :        964. kBytes
 
 Broyden mixing: mesh for mixing (old mesh)
   NGX = 25   NGY = 25   NGZ = 25
  (NGX  = 80   NGY  = 80   NGZ  = 80)
  gives a total of  15625 points

 initial charge density was supplied:
 charge density of overlapping atoms calculated
 number of electron       8.0000000 magnetization 
 keeping initial charge density in first step


--------------------------------------------------------------------------------------------------------


 Maximum index for augmentation-charges         1567 (set IRDMAX)


--------------------------------------------------------------------------------------------------------


 First call to EWALD:  gamma=   0.222
 Maximum number of real-space cells 3x 3x 3
 Maximum number of reciprocal cells 3x 3x 3

    FEWALD:  cpu time    0.00: real time    0.00


----------------------------------------- Iteration    1(   1)  ---------------------------------------


    POTLOK:  cpu time    0.80: real time    0.80
    SETDIJ:  cpu time    0.01: real time    0.01
     EDDAV:  cpu time    0.34: real time    0.34
       DOS:  cpu time    0.00: real time    0.00
    --------------------------------------------
      LOOP:  cpu time    1.15: real time    1.16

 eigenvalue-minimisations  :    24
 total energy-change (2. order) : 0.3855579E+02  (-0.1983681E+03)
 number of electron       8.0000000 magnetization 
 augmentation part        8.0000000 magnetization 

 Free energy of the ion-electron system (eV)
  ---------------------------------------------------
  alpha Z        PSCENC =         0.43793512
  Ewald energy   TEWEN  =        24.54851968
  -1/2 Hartree   DENC   =      -385.76897518
  -exchange  EXHF       =         0.00000000
  -V(xc)+E(xc)   XCENC  =        32.23254522
  PAW double counting   =       247.56105404     -249.42875511
  entropy T*S    EENTRO =         0.01159581
  eigenvalues    EBANDS =       -87.97501282
  atomic energy  EATOM  =       456.93688444
  ---------------------------------------------------
  free energy    TOTEN  =        38.55579120 eV

  energy without entropy =       38.54419539  energy(sigma->0) =       38.55192593


--------------------------------------------------------------------------------------------------------




----------------------------------------- Iteration    1(   2)  ---------------------------------------


     EDDAV:  cpu time    0.33: real time    0.33
       DOS:  cpu time    0.00: real time    0.00
    --------------------------------------------
      LOOP:  cpu time    0.34: real time    0.34

 eigenvalue-minimisations  :    24
 total energy-change (2. order) :-0.5128535E+02  (-0.5128535E+02)
 number of electron       8.0000000 magnetization 
 augmentation part        8.0000000 magnetization 

 Free energy of the ion-electron system (eV)
  ---------------------------------------------------
  alpha Z        PSCENC =         0.43793512
  Ewald energy   TEWEN  =        24.54851968
  -1/2 Hartree   DENC   =      -385.76897518
  -exchange  EXHF       =         0.00000000
  -V(xc)+E(xc)   XCENC  =        32.23254522
  PAW double counting   =       247.56105404     -249.42875511
  entropy T*S    EENTRO =         0.01159581
  eigenvalues    EBANDS =      -139.26036369
  atomic energy  EATOM  =       456.93688444
  ---------------------------------------------------
  free energy    TOTEN  =       -12.72955967 eV

  energy without entropy =      -12.74115548  energy(sigma->0) =      -12.73342494


--------------------------------------------------------------------------------------------------------




----------------------------------------- Iteration    1(   3)  ---------------------------------------


     EDDAV:  cpu time    0.25: real time    0.25
       DOS:  cpu time    0.00: real time    0.00
    --------------------------------------------
      LOOP:  cpu time    0.25: real time    0.28

 eigenvalue-minimisations  :    16
 total energy-change (2. order) :-0.3352520E+01  (-0.3352520E+01)
 number of electron       8.0000000 magnetization 
 augmentation part        8.0000000 magnetization 

 Free energy of the ion-electron system (eV)
  ---------------------------------------------------
  alpha Z        PSCENC =         0.43793512
  Ewald energy   TEWEN  =        24.54851968
  -1/2 Hartree   DENC   =      -385.76897518
  -exchange  EXHF       =         0.00000000
  -V(xc)+E(xc)   XCENC  =        32.23254522
  PAW double counting   =       247.56105404     -249.42875511
  entropy T*S    EENTRO =         0.01159581
  eigenvalues    EBANDS =      -142.61288395
  atomic energy  EATOM  =       456.93688444
  ---------------------------------------------------
  free energy    TOTEN  =       -16.08207993 eV

  energy without entropy =      -16.09367574  energy(sigma->0) =      -16.08594520


--------------------------------------------------------------------------------------------------------




----------------------------------------- Iteration    1(   4)  ---------------------------------------


     EDDAV:  cpu time    0.42: real time    0.43
       DOS:  cpu time    0.00: real time    0.00
    --------------------------------------------
      LOOP:  cpu time    0.43: real time    0.44

 eigenvalue-minimisations  :    32
 total energy-change (2. order) :-0.2951680E-01  (-0.2951680E-01)
 number of electron       8.0000000 magnetization 
 augmentation part        8.0000000 magnetization 

 Free energy of the ion-electron system (eV)
  ---------------------------------------------------
  alpha Z        PSCENC =         0.43793512
  Ewald energy   TEWEN  =        24.54851968
  -1/2 Hartree   DENC   =      -385.76897518
  -exchange  EXHF       =         0.00000000
  -V(xc)+E(xc)   XCENC  =        32.23254522
  PAW double counting   =       247.56105404     -249.42875511
  entropy T*S    EENTRO =         0.01159581
  eigenvalues    EBANDS =      -142.64240075
  atomic energy  EATOM  =       456.93688444
  ---------------------------------------------------
  free energy    TOTEN  =       -16.11159673 eV

  energy without entropy =      -16.12319254  energy(sigma->0) =      -16.11546200


--------------------------------------------------------------------------------------------------------




----------------------------------------- Iteration    1(   5)  ---------------------------------------


     EDDAV:  cpu time    0.42: real time    0.42
       DOS:  cpu time    0.00: real time    0.00
    CHARGE:  cpu time    0.09: real time    0.09
    MIXING:  cpu time    0.03: real time    0.03
    --------------------------------------------
      LOOP:  cpu time    0.53: real time    0.55

 eigenvalue-minimisations  :    32
 total energy-change (2. order) :-0.2546165E-05  (-0.2546821E-05)
 number of electron       8.0000139 magnetization 
 augmentation part        0.8109756 magnetization 

 Broyden mixing:
  rms(total) = 0.73861E+00    rms(broyden)= 0.73595E+00
  rms(prec ) = 0.11354E+01
  weight for this iteration     100.00

 Free energy of the ion-electron system (eV)
  ---------------------------------------------------
  alpha Z        PSCENC =         0.43793512
  Ewald energy   TEWEN  =        24.54851968
  -1/2 Hartree   DENC   =      -385.76897518
  -exchange  EXHF       =         0.00000000
  -V(xc)+E(xc)   XCENC  =        32.23254522
  PAW double counting   =       247.56105404     -249.42875511
  entropy T*S    EENTRO =         0.01159581
  eigenvalues    EBANDS =      -142.64240329
  atomic energy  EATOM  =       456.93688444
  ---------------------------------------------------
  free energy    TOTEN  =       -16.11159927 eV

  energy without entropy =      -16.12319508  energy(sigma->0) =      -16.11546454


--------------------------------------------------------------------------------------------------------




----------------------------------------- Iteration    1(   6)  ---------------------------------------


    POTLOK:  cpu time    0.75: real time    0.76
    SETDIJ:  cpu time    0.01: real time    0.01
     EDDAV:  cpu time    0.24: real time    0.24
       DOS:  cpu time    0.00: real time    0.00
    CHARGE:  cpu time    0.08: real time    0.09
    MIXING:  cpu time    0.03: real time    0.03
    --------------------------------------------
      LOOP:  cpu time    1.12: real time    1.20

 eigenvalue-minimisations  :    16
 total energy-change (2. order) : 0.1761273E+01  (-0.8307852E+00)
 number of electron       8.0000120 magnetization 
 augmentation part        0.6875400 magnetization 

 Broyden mixing:
  rms(total) = 0.30343E+00    rms(broyden)= 0.30285E+00
  rms(prec ) = 0.40053E+00
  weight for this iteration     100.00

 eigenvalues of (default mixing * dielectric matrix)
  average eigenvalue GAMMA=   0.9286
  0.9286

 Free energy of the ion-electron system (eV)
  ---------------------------------------------------
  alpha Z        PSCENC =         0.43793512
  Ewald energy   TEWEN  =        24.54851968
  -1/2 Hartree   DENC   =      -408.87786518
  -exchange  EXHF       =         0.00000000
  -V(xc)+E(xc)   XCENC  =        33.52441488
  PAW double counting   =       303.48729089     -305.62397072
  entropy T*S    EENTRO =         0.01159581
  eigenvalues    EBANDS =      -118.79513157
  atomic energy  EATOM  =       456.93688444
  ---------------------------------------------------
  free energy    TOTEN  =       -14.35032664 eV

  energy without entropy =      -14.36192245  energy(sigma->0) =      -14.35419191


--------------------------------------------------------------------------------------------------------




----------------------------------------- Iteration    1(   7)  ---------------------------------------


    POTLOK:  cpu time    0.75: real time    0.75
    SETDIJ:  cpu time    0.01: real time    0.01
     EDDAV:  cpu time    0.42: real time    0.42
       DOS:  cpu time    0.00: real time    0.00
    CHARGE:  cpu time    0.08: real time    0.09
    MIXING:  cpu time    0.03: real time    0.03
    --------------------------------------------
      LOOP:  cpu time    1.29: real time    1.30

 eigenvalue-minimisations  :    32
 total energy-change (2. order) : 0.1129496E+00  (-0.1047158E-01)
 number of electron       8.0000119 magnetization 
 augmentation part        0.6820678 magnetization 

 Broyden mixing:
  rms(total) = 0.18861E+00    rms(broyden)= 0.18858E+00
  rms(prec ) = 0.25274E+00
  weight for this iteration     100.00

 eigenvalues of (default mixing * dielectric matrix)
  average eigenvalue GAMMA=   1.7605
  1.0493  2.4717

 Free energy of the ion-electron system (eV)
  ---------------------------------------------------
  alpha Z        PSCENC =         0.43793512
  Ewald energy   TEWEN  =        24.54851968
  -1/2 Hartree   DENC   =      -412.82588561
  -exchange  EXHF       =         0.00000000
  -V(xc)+E(xc)   XCENC  =        33.72982957
  PAW double counting   =       318.08708770     -320.17568662
  entropy T*S    EENTRO =         0.01159581
  eigenvalues    EBANDS =      -114.98765713
  atomic energy  EATOM  =       456.93688444
  ---------------------------------------------------
  free energy    TOTEN  =       -14.23737702 eV

  energy without entropy =      -14.24897283  energy(sigma->0) =      -14.24124229


--------------------------------------------------------------------------------------------------------




----------------------------------------- Iteration    1(   8)  ---------------------------------------


    POTLOK:  cpu time    0.74: real time    0.74
    SETDIJ:  cpu time    0.01: real time    0.01
     EDDAV:  cpu time    0.33: real time    0.33
       DOS:  cpu time    0.00: real time    0.00
    CHARGE:  cpu time    0.08: real time    0.09
    MIXING:  cpu time    0.03: real time    0.03
    --------------------------------------------
      LOOP:  cpu time    1.19: real time    1.28

 eigenvalue-minimisations  :    24
 total energy-change (2. order) : 0.7899021E-01  (-0.7170061E-02)
 number of electron       8.0000119 magnetization 
 augmentation part        0.6800749 magnetization 

 Broyden mixing:
  rms(total) = 0.21607E-01    rms(broyden)= 0.21595E-01
  rms(prec ) = 0.50951E-01
  weight for this iteration     100.00

 eigenvalues of (default mixing * dielectric matrix)
  average eigenvalue GAMMA=   1.5334
  2.3579  1.0333  1.2090

 Free energy of the ion-electron system (eV)
  ---------------------------------------------------
  alpha Z        PSCENC =         0.43793512
  Ewald energy   TEWEN  =        24.54851968
  -1/2 Hartree   DENC   =      -418.29913243
  -exchange  EXHF       =         0.00000000
  -V(xc)+E(xc)   XCENC  =        34.03429836
  PAW double counting   =       338.18243070     -340.19545908
  entropy T*S    EENTRO =         0.01159581
  eigenvalues    EBANDS =      -109.81545942
  atomic energy  EATOM  =       456.93688444
  ---------------------------------------------------
  free energy    TOTEN  =       -14.15838682 eV

  energy without entropy =      -14.16998263  energy(sigma->0) =      -14.16225209


--------------------------------------------------------------------------------------------------------




----------------------------------------- Iteration    1(   9)  ---------------------------------------


    POTLOK:  cpu time    0.73: real time    0.74
    SETDIJ:  cpu time    0.01: real time    0.01
     EDDAV:  cpu time    0.33: real time    0.33
       DOS:  cpu time    0.00: real time    0.00
    CHARGE:  cpu time    0.08: real time    0.09
    MIXING:  cpu time    0.03: real time    0.03
    --------------------------------------------
      LOOP:  cpu time    1.19: real time    1.20

 eigenvalue-minimisations  :    24
 total energy-change (2. order) :-0.5308121E-02  (-0.4470605E-03)
 number of electron       8.0000118 magnetization 
 augmentation part        0.6775453 magnetization 

 Broyden mixing:
  rms(total) = 0.13372E-01    rms(broyden)= 0.13367E-01
  rms(prec ) = 0.34996E-01
  weight for this iteration     100.00

 eigenvalues of (default mixing * dielectric matrix)
  average eigenvalue GAMMA=   1.9358
  0.9950  0.9950  3.2093  2.5441

 Free energy of the ion-electron system (eV)
  ---------------------------------------------------
  alpha Z        PSCENC =         0.43793512
  Ewald energy   TEWEN  =        24.54851968
  -1/2 Hartree   DENC   =      -418.90305840
  -exchange  EXHF       =         0.00000000
  -V(xc)+E(xc)   XCENC  =        34.04773189
  PAW double counting   =       336.14410479     -338.16034171
  entropy T*S    EENTRO =         0.01159581
  eigenvalues    EBANDS =      -109.22706656
  atomic energy  EATOM  =       456.93688444
  ---------------------------------------------------
  free energy    TOTEN  =       -14.16369494 eV

  energy without entropy =      -14.17529075  energy(sigma->0) =      -14.16756021


--------------------------------------------------------------------------------------------------------




----------------------------------------- Iteration    1(  10)  ---------------------------------------


    POTLOK:  cpu time    0.73: real time    0.73
    SETDIJ:  cpu time    0.01: real time    0.01
     EDDAV:  cpu time    0.24: real time    0.24
       DOS:  cpu time    0.00: real time    0.00
    CHARGE:  cpu time    0.08: real time    0.09
    MIXING:  cpu time    0.03: real time    0.03
    --------------------------------------------
      LOOP:  cpu time    1.09: real time    1.17

 eigenvalue-minimisations  :    16
 total energy-change (2. order) :-0.9364967E-02  (-0.4477795E-03)
 number of electron       8.0000118 magnetization 
 augmentation part        0.6783184 magnetization 

 Broyden mixing:
  rms(total) = 0.63209E-02    rms(broyden)= 0.63153E-02
  rms(prec ) = 0.13207E-01
  weight for this iteration     100.00

 eigenvalues of (default mixing * dielectric matrix)
  average eigenvalue GAMMA=   2.1518
  3.8296  2.4600  2.4600  1.0047  1.0047

 Free energy of the ion-electron system (eV)
  ---------------------------------------------------
  alpha Z        PSCENC =         0.43793512
  Ewald energy   TEWEN  =        24.54851968
  -1/2 Hartree   DENC   =      -419.51579352
  -exchange  EXHF       =         0.00000000
  -V(xc)+E(xc)   XCENC  =        34.05056898
  PAW double counting   =       333.00891202     -335.01663167
  entropy T*S    EENTRO =         0.01159581
  eigenvalues    EBANDS =      -108.63505076
  atomic energy  EATOM  =       456.93688444
  ---------------------------------------------------
  free energy    TOTEN  =       -14.17305990 eV

  energy without entropy =      -14.18465571  energy(sigma->0) =      -14.17692517


--------------------------------------------------------------------------------------------------------




----------------------------------------- Iteration    1(  11)  ---------------------------------------


    POTLOK:  cpu time    0.72: real time    0.72
    SETDIJ:  cpu time    0.01: real time    0.01
     EDDAV:  cpu time    0.24: real time    0.25
       DOS:  cpu time    0.00: real time    0.00
    CHARGE:  cpu time    0.09: real time    0.09
    MIXING:  cpu time    0.03: real time    0.03
    --------------------------------------------
      LOOP:  cpu time    1.09: real time    1.10

 eigenvalue-minimisations  :    16
 total energy-change (2. order) :-0.7024128E-02  (-0.4776655E-03)
 number of electron       8.0000118 magnetization 
 augmentation part        0.6759387 magnetization 

 Broyden mixing:
  rms(total) = 0.96505E-02    rms(broyden)= 0.96430E-02
  rms(prec ) = 0.14798E-01
  weight for this iteration     100.00

 eigenvalues of (default mixing * dielectric matrix)
  average eigenvalue GAMMA=   2.1037
  4.5004  2.8229  2.5329  1.0036  1.0036  0.7586

 Free energy of the ion-electron system (eV)
  ---------------------------------------------------
  alpha Z        PSCENC =         0.43793512
  Ewald energy   TEWEN  =        24.54851968
  -1/2 Hartree   DENC   =      -420.06021747
  -exchange  EXHF       =         0.00000000
  -V(xc)+E(xc)   XCENC  =        34.07266200
  PAW double counting   =       335.08382137     -337.09648291
  entropy T*S    EENTRO =         0.01159581
  eigenvalues    EBANDS =      -108.11480209
  atomic energy  EATOM  =       456.93688444
  ---------------------------------------------------
  free energy    TOTEN  =       -14.18008403 eV

  energy without entropy =      -14.19167984  energy(sigma->0) =      -14.18394930


--------------------------------------------------------------------------------------------------------




----------------------------------------- Iteration    1(  12)  ---------------------------------------


    POTLOK:  cpu time    0.71: real time    0.71
    SETDIJ:  cpu time    0.01: real time    0.01
     EDDAV:  cpu time    0.42: real time    0.42
       DOS:  cpu time    0.00: real time    0.00
    CHARGE:  cpu time    0.08: real time    0.09
    MIXING:  cpu time    0.03: real time    0.03
    --------------------------------------------
      LOOP:  cpu time    1.25: real time    1.27

 eigenvalue-minimisations  :    32
 total energy-change (2. order) :-0.8853244E-03  (-0.1228019E-03)
 number of electron       8.0000118 magnetization 
 augmentation part        0.6773994 magnetization 

 Broyden mixing:
  rms(total) = 0.24223E-02    rms(broyden)= 0.24177E-02
  rms(prec ) = 0.38667E-02
  weight for this iteration     100.00

 eigenvalues of (default mixing * dielectric matrix)
  average eigenvalue GAMMA=   2.1804
  4.7118  2.7762  2.7762  2.0004  1.0891  0.9544  0.9544

 Free energy of the ion-electron system (eV)
  ---------------------------------------------------
  alpha Z        PSCENC =         0.43793512
  Ewald energy   TEWEN  =        24.54851968
  -1/2 Hartree   DENC   =      -419.73936738
  -exchange  EXHF       =         0.00000000
  -V(xc)+E(xc)   XCENC  =        34.05241015
  PAW double counting   =       334.30177765     -336.31214409
  entropy T*S    EENTRO =         0.01159581
  eigenvalues    EBANDS =      -108.41858075
  atomic energy  EATOM  =       456.93688444
  ---------------------------------------------------
  free energy    TOTEN  =       -14.18096936 eV

  energy without entropy =      -14.19256517  energy(sigma->0) =      -14.18483463


--------------------------------------------------------------------------------------------------------




----------------------------------------- Iteration    1(  13)  ---------------------------------------


    POTLOK:  cpu time    0.71: real time    0.71
    SETDIJ:  cpu time    0.01: real time    0.01
     EDDAV:  cpu time    0.33: real time    0.33
       DOS:  cpu time    0.00: real time    0.00
    CHARGE:  cpu time    0.08: real time    0.09
    MIXING:  cpu time    0.03: real time    0.03
    --------------------------------------------
      LOOP:  cpu time    1.17: real time    1.24

 eigenvalue-minimisations  :    24
 total energy-change (2. order) :-0.9399162E-03  (-0.1105208E-04)
 number of electron       8.0000118 magnetization 
 augmentation part        0.6776175 magnetization 

 Broyden mixing:
  rms(total) = 0.85751E-03    rms(broyden)= 0.85460E-03
  rms(prec ) = 0.13431E-02
  weight for this iteration     100.00

 eigenvalues of (default mixing * dielectric matrix)
  average eigenvalue GAMMA=   2.2303
  5.7977  3.3406  2.4462  2.4462  1.0053  1.0053  0.9007  0.9007

 Free energy of the ion-electron system (eV)
  ---------------------------------------------------
  alpha Z        PSCENC =         0.43793512
  Ewald energy   TEWEN  =        24.54851968
  -1/2 Hartree   DENC   =      -419.67499115
  -exchange  EXHF       =         0.00000000
  -V(xc)+E(xc)   XCENC  =        34.04785642
  PAW double counting   =       334.14746357     -336.15673224
  entropy T*S    EENTRO =         0.01159581
  eigenvalues    EBANDS =      -108.48044092
  atomic energy  EATOM  =       456.93688444
  ---------------------------------------------------
  free energy    TOTEN  =       -14.18190927 eV

  energy without entropy =      -14.19350508  energy(sigma->0) =      -14.18577454


--------------------------------------------------------------------------------------------------------




----------------------------------------- Iteration    1(  14)  ---------------------------------------


    POTLOK:  cpu time    0.72: real time    0.72
    SETDIJ:  cpu time    0.01: real time    0.01
     EDDAV:  cpu time    0.42: real time    0.42
       DOS:  cpu time    0.00: real time    0.00
    CHARGE:  cpu time    0.08: real time    0.09
    MIXING:  cpu time    0.03: real time    0.03
    --------------------------------------------
      LOOP:  cpu time    1.26: real time    1.28

 eigenvalue-minimisations  :    32
 total energy-change (2. order) :-0.2011034E-03  (-0.1747433E-05)
 number of electron       8.0000118 magnetization 
 augmentation part        0.6776922 magnetization 

 Broyden mixing:
  rms(total) = 0.52818E-03    rms(broyden)= 0.52768E-03
  rms(prec ) = 0.78212E-03
  weight for this iteration     100.00

 eigenvalues of (default mixing * dielectric matrix)
  average eigenvalue GAMMA=   2.4122
  6.2713  4.0402  2.8138  2.5026  2.1104  1.0796  0.9515  0.9515  0.9887

 Free energy of the ion-electron system (eV)
  ---------------------------------------------------
  alpha Z        PSCENC =         0.43793512
  Ewald energy   TEWEN  =        24.54851968
  -1/2 Hartree   DENC   =      -419.63028795
  -exchange  EXHF       =         0.00000000
  -V(xc)+E(xc)   XCENC  =        34.04519623
  PAW double counting   =       334.02284528     -336.03202286
  entropy T*S    EENTRO =         0.01159581
  eigenvalues    EBANDS =      -108.52277613
  atomic energy  EATOM  =       456.93688444
  ---------------------------------------------------
  free energy    TOTEN  =       -14.18211038 eV

  energy without entropy =      -14.19370619  energy(sigma->0) =      -14.18597565


--------------------------------------------------------------------------------------------------------




----------------------------------------- Iteration    1(  15)  ---------------------------------------


    POTLOK:  cpu time    0.73: real time    0.73
    SETDIJ:  cpu time    0.01: real time    0.01
     EDDAV:  cpu time    0.42: real time    0.42
       DOS:  cpu time    0.00: real time    0.00
    CHARGE:  cpu time    0.08: real time    0.09
    MIXING:  cpu time    0.03: real time    0.04
    --------------------------------------------
      LOOP:  cpu time    1.28: real time    1.36

 eigenvalue-minimisations  :    32
 total energy-change (2. order) :-0.1093182E-03  (-0.1135694E-05)
 number of electron       8.0000118 magnetization 
 augmentation part        0.6776361 magnetization 

 Broyden mixing:
  rms(total) = 0.61387E-04    rms(broyden)= 0.61132E-04
  rms(prec ) = 0.12181E-03
  weight for this iteration     100.00

 eigenvalues of (default mixing * dielectric matrix)
  average eigenvalue GAMMA=   2.4309
  6.3878  4.2385  3.1978  2.5171  2.5171  1.4488  1.1015  0.9561  0.9561  0.9877

 Free energy of the ion-electron system (eV)
  ---------------------------------------------------
  alpha Z        PSCENC =         0.43793512
  Ewald energy   TEWEN  =        24.54851968
  -1/2 Hartree   DENC   =      -419.63432157
  -exchange  EXHF       =         0.00000000
  -V(xc)+E(xc)   XCENC  =        34.04559453
  PAW double counting   =       334.01574168     -336.02469621
  entropy T*S    EENTRO =         0.01159581
  eigenvalues    EBANDS =      -108.51947318
  atomic energy  EATOM  =       456.93688444
  ---------------------------------------------------
  free energy    TOTEN  =       -14.18221969 eV

  energy without entropy =      -14.19381550  energy(sigma->0) =      -14.18608496


--------------------------------------------------------------------------------------------------------




----------------------------------------- Iteration    1(  16)  ---------------------------------------


    POTLOK:  cpu time    0.75: real time    0.75
    SETDIJ:  cpu time    0.01: real time    0.01
     EDDAV:  cpu time    0.42: real time    0.42
       DOS:  cpu time    0.00: real time    0.00
    --------------------------------------------
      LOOP:  cpu time    1.18: real time    1.29

 eigenvalue-minimisations  :    32
 total energy-change (2. order) :-0.1124600E-04  (-0.7827342E-07)
 number of electron       8.0000118 magnetization 
 augmentation part        0.6776361 magnetization 

 Free energy of the ion-electron system (eV)
  ---------------------------------------------------
  alpha Z        PSCENC =         0.43793512
  Ewald energy   TEWEN  =        24.54851968
  -1/2 Hartree   DENC   =      -419.63590289
  -exchange  EXHF       =         0.00000000
  -V(xc)+E(xc)   XCENC  =        34.04571600
  PAW double counting   =       334.02844222     -336.03748445
  entropy T*S    EENTRO =         0.01159581
  eigenvalues    EBANDS =      -108.51793688
  atomic energy  EATOM  =       456.93688444
  ---------------------------------------------------
  free energy    TOTEN  =       -14.18223094 eV

  energy without entropy =      -14.19382675  energy(sigma->0) =      -14.18609621


--------------------------------------------------------------------------------------------------------




 average (electrostatic) potential at core
  the test charge radii are     0.5201  0.7215
  (the norm of the test charge is              1.0000)
       1 -44.4668       2 -44.4668       3 -80.6576
 
 
 
 E-fermi :  -6.8750     XC(G=0):  -0.9933     alpha+bet : -0.2541


 k-point   1 :       0.0000    0.0000    0.0000
  band No.  band energies     occupation 
      1     -25.1677      2.00000
      2     -12.9282      2.00000
      3      -9.1198      2.00000
      4      -7.0433      2.00000
      5      -1.0735      0.00000
      6       1.1085      0.00000
      7       1.2199      0.00000
      8       1.7325      0.00000


--------------------------------------------------------------------------------------------------------


 soft charge-density along one line, spin component           1
         0         1         2         3         4         5         6         7         8         9
 total charge-density along one line
 
 pseudopotential strength for first ion, spin component:           1
 -2.382  -0.017  -0.002   0.000   0.002
 -0.017   0.049  -0.002   0.000   0.002
 -0.002  -0.002  -0.319   0.000  -0.005
  0.000   0.000   0.000  -0.325   0.000
  0.002   0.002  -0.005   0.000  -0.321
 total augmentation occupancy for first ion, spin component:           1
  1.666  -0.711   0.358   0.000  -0.258
 -0.711   0.487  -0.177   0.000   0.139
  0.358  -0.177   0.086   0.000  -0.049
  0.000   0.000   0.000   0.037   0.000
 -0.258   0.139  -0.049   0.000   0.062


------------------------ aborting loop because EDIFF is reached ----------------------------------------


    CHARGE:  cpu time    0.08: real time    0.09
    FORLOC:  cpu time    0.07: real time    0.07
    FORNL :  cpu time    0.03: real time    0.03
    STRESS:  cpu time    0.18: real time    0.18
    FORHAR:  cpu time    0.23: real time    0.23
    MIXING:  cpu time    0.03: real time    0.04

  FORCE on cell =-STRESS in cart. coord.  units (eV):
  Direction    XX          YY          ZZ          XY          YZ          ZX
  --------------------------------------------------------------------------------------
  Alpha Z     0.43794     0.43794     0.43794
  Ewald      12.62220    66.79641   -54.87014     0.00000     0.00000     0.00000
  Hartree   140.86238   150.17331   128.59173     0.00000     0.00000     0.00000
  E(xc)     -36.07341   -35.87485   -36.37149     0.00000     0.00000     0.00000
  Local    -243.99905  -292.32849  -185.00247     0.00000     0.00000     0.00000
  n-local   -31.93509   -31.04780   -31.87981     0.00000     0.00000     0.00000
  augment     6.65910     5.71793     8.05598     0.00000     0.00000     0.00000
  Kinetic   149.11491   134.03673   168.52380     0.00000     0.00000     0.00000
  Fock        0.00000     0.00000     0.00000     0.00000     0.00000     0.00000
  -------------------------------------------------------------------------------------
  Total      -2.31103    -2.08882    -2.51445     0.00000     0.00000     0.00000
  in kB      -7.23180    -6.53644    -7.86836     0.00000     0.00000     0.00000
  external pressure =       -7.21 kB  Pullay stress =        0.00 kB


 VOLUME and BASIS-vectors are now :
 -----------------------------------------------------------------------------
  energy-cutoff  :      350.00
  volume of cell :      512.00
      direct lattice vectors                 reciprocal lattice vectors
     8.000000000  0.000000000  0.000000000     0.125000000  0.000000000  0.000000000
     0.000000000  8.000000000  0.000000000     0.000000000  0.125000000  0.000000000
     0.000000000  0.000000000  8.000000000     0.000000000  0.000000000  0.125000000

  length of vectors
     8.000000000  8.000000000  8.000000000     0.125000000  0.125000000  0.125000000


 FORCES acting on ions
    electron-ion (+dipol)            ewald-force                    non-local-force                 convergence-correction
 -----------------------------------------------------------------------------------------------
   -.508E+02 0.709E+02 -.180E-06   0.557E+02 -.776E+02 -.677E-17   -.484E+01 0.670E+01 0.000E+00   -.238E-03 0.367E-03 -.129E-14
   -.508E+02 -.709E+02 0.191E-06   0.557E+02 0.776E+02 -.621E-17   -.484E+01 -.670E+01 0.000E+00   -.238E-03 -.367E-03 -.746E-15
   0.621E+02 -.581E-14 0.208E-05   -.111E+03 -.150E-14 -.485E-16   0.492E+02 0.000E+00 0.000E+00   -.106E-03 0.957E-13 -.345E-13
 -----------------------------------------------------------------------------------------------
   -.395E+02 0.368E-13 0.209E-05   0.000E+00 -.150E-14 -.615E-16   0.395E+02 0.000E+00 0.000E+00   -.582E-03 0.101E-12 -.365E-13
 
 
 POSITION                                       TOTAL-FORCE (eV/Angst)
 -----------------------------------------------------------------------------------
      4.29804      3.23229      4.00000         0.028875     -0.041596      0.000000
      4.29804      4.76771      4.00000         0.028875      0.041596      0.000000
      3.70196      4.00000      4.00000        -0.057749      0.000000      0.000000
 -----------------------------------------------------------------------------------
    total drift:                                0.000380      0.000000      0.000002


--------------------------------------------------------------------------------------------------------



  FREE ENERGIE OF THE ION-ELECTRON SYSTEM (eV)
  ---------------------------------------------------
  free  energy   TOTEN  =       -14.182231 eV

  energy  without entropy=      -14.193827  energy(sigma->0) =      -14.186096
 


--------------------------------------------------------------------------------------------------------


    POTLOK:  cpu time    0.76: real time    0.76


--------------------------------------------------------------------------------------------------------


 writing wavefunctions
     LOOP+:  cpu time   18.16: real time   19.69
    4ORBIT:  cpu time    0.00: real time    0.00

 total amount of memory used by VASP on root node    81929. kBytes
========================================================================

   base      :      30000. kBytes
   nonl-proj :       1323. kBytes
   fftplans  :      17864. kBytes
   grid      :      31769. kBytes
   one-center:          9. kBytes
   wavefun   :        964. kBytes
 
  
  
 General timing and accounting informations for this job:
 ========================================================
  
                  Total CPU time used (sec):       19.825
                            User time (sec):       19.458
                          System time (sec):        0.367
                         Elapsed time (sec):       22.424
  
                   Maximum memory used (kb):           0.
                   Average memory used (kb):           0.
  
                          Minor page faults:        93414
                          Major page faults:            0
                 Voluntary context switches:          755
