<?xml version="1.0" encoding="ISO-8859-1"?>
<modeling>
 <generator>
  <i name="program" type="string">vasp </i>
  <i name="version" type="string">5.2.12  </i>
  <i name="subversion" type="string">11Nov11 complex                                                      parallel </i>
  <i name="platform" type="string">LinuxIFC </i>
  <i name="date" type="string">2012 10 31 </i>
  <i name="time" type="string">04:26:50 </i>
 </generator>
 <incar>
  <i type="string" name="PREC">normal</i>
  <i name="ENCUT">    350.00000000</i>
 </incar>
 <kpoints>
  <generation param="Monkhorst-Pack">
   <v type="int" name="divisions">       1        1        1 </v>
   <v name="usershift">      0.00000000       0.00000000       0.00000000 </v>
   <v name="genvec1">      1.00000000       0.00000000       0.00000000 </v>
   <v name="genvec2">      0.00000000       1.00000000       0.00000000 </v>
   <v name="genvec3">      0.00000000       0.00000000       1.00000000 </v>
   <v name="shift">      0.00000000       0.00000000       0.00000000 </v>
  </generation>
  <varray name="kpointlist" >
   <v>       0.00000000       0.00000000       0.00000000 </v>
  </varray>
  <varray name="weights" >
   <v>       1.00000000 </v>
  </varray>
 </kpoints>
 <parameters>
  <separator name="general" >
   <i type="string" name="SYSTEM">unknown system</i>
   <i type="logical" name="LCOMPAT"> F  </i>
  </separator>
  <separator name="electronic" >
   <i type="string" name="PREC">normal</i>
   <i name="ENMAX">    350.00000000</i>
   <i name="ENAUG">    605.39200000</i>
   <i name="EDIFF">      0.00010000</i>
   <i type="int" name="IALGO">    38</i>
   <i type="int" name="IWAVPR">    10</i>
   <i type="int" name="NBANDS">     8</i>
   <i name="NELECT">      8.00000000</i>
   <i type="int" name="TURBO">     0</i>
   <i type="int" name="IRESTART">     0</i>
   <i type="int" name="NREBOOT">     0</i>
   <i type="int" name="NMIN">     0</i>
   <i name="EREF">      0.00000000</i>
   <separator name="electronic smearing" >
    <i type="int" name="ISMEAR">     1</i>
    <i name="SIGMA">      0.20000000</i>
    <i name="KSPACING">      0.50000000</i>
    <i type="logical" name="KGAMMA"> T  </i>
   </separator>
   <separator name="electronic projectors" >
    <i type="logical" name="LREAL"> F  </i>
    <v name="ROPT">      0.00000000      0.00000000</v>
    <i type="int" name="LMAXPAW">  -100</i>
    <i type="int" name="LMAXMIX">     2</i>
    <i type="logical" name="NLSPLINE"> F  </i>
   </separator>
   <separator name="electronic startup" >
    <i type="int" name="ISTART">     0</i>
    <i type="int" name="ICHARG">     2</i>
    <i type="int" name="INIWAV">     1</i>
   </separator>
   <separator name="electronic spin" >
    <i type="int" name="ISPIN">     1</i>
    <i type="logical" name="LNONCOLLINEAR"> F  </i>
    <v name="MAGMOM">      1.00000000      1.00000000      1.00000000</v>
    <i name="NUPDOWN">     -1.00000000</i>
    <i type="logical" name="LSORBIT"> F  </i>
    <v name="SAXIS">      0.00000000      0.00000000      1.00000000</v>
    <i type="logical" name="LSPIRAL"> F  </i>
    <v name="QSPIRAL">      0.00000000      0.00000000      0.00000000</v>
    <i type="logical" name="LZEROZ"> F  </i>
   </separator>
   <separator name="electronic exchange-correlation" >
    <i type="logical" name="LASPH"> F  </i>
    <i type="logical" name="LMETAGGA"> F  </i>
   </separator>
   <separator name="electronic convergence" >
    <i type="int" name="NELM">    60</i>
    <i type="int" name="NELMDL">    -5</i>
    <i type="int" name="NELMIN">     2</i>
    <i name="ENINI">    350.00000000</i>
    <separator name="electronic convergence detail" >
     <i type="logical" name="LDIAG"> T  </i>
     <i type="logical" name="LSUBROT"> T  </i>
     <i name="WEIMIN">      0.00000000</i>
     <i name="EBREAK">      0.00000313</i>
     <i name="DEPER">      0.30000000</i>
     <i type="int" name="NRMM">     4</i>
     <i name="TIME">      0.40000000</i>
    </separator>
   </separator>
   <separator name="electronic mixer" >
    <i name="AMIX">      0.40000000</i>
    <i name="BMIX">      1.00000000</i>
    <i name="AMIN">      0.10000000</i>
    <i name="AMIX_MAG">      1.60000000</i>
    <i name="BMIX_MAG">      1.00000000</i>
    <separator name="electronic mixer details" >
     <i type="int" name="IMIX">     4</i>
     <i type="int" name="MAXMIX">   -45</i>
     <i name="WC">    100.00000000</i>
     <i type="int" name="INIMIX">     1</i>
     <i type="int" name="MIXPRE">     1</i>
     <i type="int" name="MREMOVE">     5</i>
    </separator>
   </separator>
   <separator name="electronic dipolcorrection" >
    <i type="logical" name="LDIPOL"> F  </i>
    <i type="logical" name="LMONO"> F  </i>
    <i type="int" name="IDIPOL">     0</i>
    <i name="EPSILON">      1.00000000</i>
    <v name="DIPOL">   -100.00000000   -100.00000000   -100.00000000</v>
    <i name="EFIELD">      0.00000000</i>
   </separator>
  </separator>
  <separator name="grids" >
   <i type="int" name="NGX">    40</i>
   <i type="int" name="NGY">    40</i>
   <i type="int" name="NGZ">    40</i>
   <i type="int" name="NGXF">    80</i>
   <i type="int" name="NGYF">    80</i>
   <i type="int" name="NGZF">    80</i>
   <i type="logical" name="ADDGRID"> F  </i>
  </separator>
  <separator name="ionic" >
   <i type="int" name="NSW">     0</i>
   <i type="int" name="IBRION">    -1</i>
   <i type="int" name="ISIF">     2</i>
   <i name="PSTRESS">      0.00000000</i>
   <i name="EDIFFG">      0.00100000</i>
   <i type="int" name="NFREE">     0</i>
   <i name="POTIM">      0.50000000</i>
   <i name="SMASS">     -3.00000000</i>
   <i name="SCALEE">      1.00000000</i>
  </separator>
  <separator name="ionic md" >
   <i name="TEBEG">      0.00010000</i>
   <i name="TEEND">      0.00010000</i>
   <i type="int" name="NBLOCK">     1</i>
   <i type="int" name="KBLOCK">     1</i>
   <i type="int" name="NPACO">   256</i>
   <i name="APACO">     16.00000000</i>
  </separator>
  <separator name="symmetry" >
   <i type="int" name="ISYM">     2</i>
   <i name="SYMPREC">      0.00001000</i>
  </separator>
  <separator name="dos" >
   <i type="logical" name="LORBIT"> F  </i>
   <v name="RWIGS">     -1.00000000     -1.00000000</v>
   <i type="int" name="NEDOS">   301</i>
   <i name="EMIN">     10.00000000</i>
   <i name="EMAX">    -10.00000000</i>
   <i name="EFERMI">      0.00000000</i>
  </separator>
  <separator name="writing" >
   <i type="int" name="NWRITE">     2</i>
   <i type="logical" name="LWAVE"> T  </i>
   <i type="logical" name="LCHARG"> T  </i>
   <i type="logical" name="LPARD"> F  </i>
   <i type="logical" name="LVTOT"> F  </i>
   <i type="logical" name="LVHAR"> F  </i>
   <i type="logical" name="LELF"> F  </i>
   <i type="logical" name="LOPTICS"> F  </i>
   <v name="STM">      0.00000000      0.00000000      0.00000000      0.00000000      0.00000000      0.00000000      0.00000000</v>
  </separator>
  <separator name="performance" >
   <i type="int" name="NPAR">     1</i>
   <i type="int" name="NSIM">     4</i>
   <i type="int" name="NBLK">    -1</i>
   <i type="logical" name="LPLANE"> T  </i>
   <i type="logical" name="LSCALAPACK"> F  </i>
   <i type="logical" name="LSCAAWARE"> F  </i>
   <i type="logical" name="LSCALU"> F  </i>
   <i type="logical" name="LASYNC"> F  </i>
   <i type="logical" name="LORBITALREAL"> F  </i>
  </separator>
  <separator name="miscellaneous" >
   <i type="int" name="IDIOT">     3</i>
   <i type="logical" name="LMUSIC"> F  </i>
   <v name="POMASS">      1.00000000     16.00000000</v>
   <v name="DARWINR">      0.00000000      0.00000000</v>
   <v name="DARWINV">      1.00000000      1.00000000</v>
   <i type="logical" name="LCORR"> T  </i>
  </separator>
  <i type="logical" name="GGA_COMPAT"> T  </i>
  <i type="logical" name="LBERRY"> F  </i>
  <i type="int" name="ICORELEVEL">     0</i>
  <i type="logical" name="LDAU"> F  </i>
  <i type="int" name="I_CONSTRAINED_M">     0</i>
  <separator name="electronic exchange-correlation" >
   <i type="string" name="GGA">--</i>
   <i type="int" name="VOSKOWN">     0</i>
   <i type="logical" name="LHFCALC"> F  </i>
   <i type="string" name="PRECFOCK"></i>
   <i type="logical" name="LHFONE"> F  </i>
   <i type="logical" name="LRHFCALC"> F  </i>
   <i type="logical" name="LTHOMAS"> F  </i>
   <i type="logical" name="LMODELHF"> F  </i>
   <i name="ENCUT4O">     -1.00000000</i>
   <i type="int" name="EXXOEP">     0</i>
   <i type="int" name="FOURORBIT">     0</i>
   <i name="AEXX">      0.00000000</i>
   <i name="HFALPHA">      0.00000000</i>
   <i name="ALDAX">      1.00000000</i>
   <i name="AGGAX">      1.00000000</i>
   <i name="ALDAC">      1.00000000</i>
   <i name="AGGAC">      1.00000000</i>
   <i type="int" name="NKREDX">     1</i>
   <i type="int" name="NKREDY">     1</i>
   <i type="int" name="NKREDZ">     1</i>
   <i type="logical" name="SHIFTRED"> F  </i>
   <i type="logical" name="ODDONLY"> F  </i>
   <i type="logical" name="EVENONLY"> F  </i>
   <i type="int" name="LMAXFOCK">     0</i>
   <i type="int" name="NMAXFOCKAE">     0</i>
   <i type="logical" name="LFOCKAEDFT"> F  </i>
   <i name="HFSCREEN">      0.00000000</i>
   <i name="HFSCREENC">      0.00000000</i>
  </separator>
  <separator name="vdW DFT" >
   <i type="logical" name="LUSE_VDW"> F  </i>
   <i name="Zab_VDW">     -0.84910000</i>
   <i name="PARAM1">      0.12340000</i>
   <i name="PARAM2">      1.00000000</i>
   <i name="PARAM3">      0.00000000</i>
  </separator>
  <separator name="model GW" >
   <i type="int" name="MODEL_GW">     0</i>
   <i name="MODEL_EPS0">    102.40000000</i>
   <i name="MODEL_ALPHA">      1.00000000</i>
  </separator>
  <separator name="linear response parameters" >
   <i type="logical" name="LEPSILON"> F  </i>
   <i type="logical" name="LRPA"> F  </i>
   <i type="logical" name="LNABLA"> F  </i>
   <i type="logical" name="LVEL"> F  </i>
   <i type="int" name="KINTER">     0</i>
   <i name="CSHIFT">      0.10000000</i>
   <i name="OMEGAMAX">     -1.00000000</i>
  </separator>
  <separator name="orbital magnetization" >
   <i type="logical" name="NUCIND"> F  </i>
   <v name="MAGPOS">      0.00000000      0.00000000      0.00000000</v>
   <i type="logical" name="LNICSALL"> T  </i>
   <i type="logical" name="ORBITALMAG"> F  </i>
   <i type="logical" name="LMAGBLOCH"> F  </i>
   <i type="logical" name="LCHIMAG"> F  </i>
   <i type="logical" name="LGAUGE"> T  </i>
   <i type="int" name="MAGATOM">     0</i>
   <v name="MAGDIPOL">      0.00000000      0.00000000      0.00000000</v>
   <v name="AVECCONST">      0.00000000      0.00000000      0.00000000</v>
  </separator>
  <separator name="response functions" >
   <i type="logical" name="LADDER"> F  </i>
   <i type="logical" name="LHARTREE"> T  </i>
   <i type="int" name="IBSE">     0</i>
   <i type="logical" name="LTCTE"> F  </i>
   <i type="logical" name="LTETE"> F  </i>
   <i type="logical" name="LFXCEPS"> F  </i>
   <i type="logical" name="L2ORDER"> F  </i>
   <i type="logical" name="LUSEW"> F  </i>
   <i name="ENCUTGW">     -2.00000000</i>
   <i name="ENCUTGWSOFT">     -2.00000000</i>
   <i name="ENCUTLF">     -1.00000000</i>
   <i type="int" name="LMAXMP2">    -1</i>
   <i name="SCISSOR">      0.00000000</i>
   <i type="int" name="NOMEGA">     0</i>
   <i type="int" name="NOMEGAR">     0</i>
   <i type="int" name="NBANDSGW">    -1</i>
   <i type="int" name="NBANDSO">    -1</i>
   <i type="int" name="NBANDSV">    -1</i>
   <i name="OPTEMAX">      0.00000000</i>
   <i type="int" name="NELM">     1</i>
   <i type="int" name="DIM">     3</i>
   <i type="int" name="ANTIRES">     0</i>
   <i name="OMEGAMAX">    -30.00000000</i>
   <i name="OMEGATL">   -200.00000000</i>
   <i type="int" name="OMEGAGRID">     0</i>
   <i name="CSHIFT">     -0.10000000</i>
   <i type="logical" name="SELFENERGY"> F  </i>
   <i type="logical" name="LSPECTRAL"> F  </i>
   <i type="logical" name="ODDONLYGW"> F  </i>
   <i type="logical" name="EVENONLYGW"> F  </i>
   <i type="int" name="NKREDLFX">     1</i>
   <i type="int" name="NKREDLFY">     1</i>
   <i type="int" name="NKREDLFZ">     1</i>
   <i type="int" name="MAXMEM">  1800</i>
   <i type="int" name="TELESCOPE">     0</i>
  </separator>
 </parameters>
 <atominfo>
  <atoms>       3 </atoms>
  <types>       2 </types>
  <array name="atoms" >
   <dimension dim="1">ion</dimension>
   <field type="string">element</field>
   <field type="int">atomtype</field>
   <set>
    <rc><c>H </c><c>   1</c></rc>
    <rc><c>H </c><c>   1</c></rc>
    <rc><c>O </c><c>   2</c></rc>
   </set>
  </array>
  <array name="atomtypes" >
   <dimension dim="1">type</dimension>
   <field type="int">atomspertype</field>
   <field type="string">element</field>
   <field>mass</field>
   <field>valence</field>
   <field type="string">pseudopotential</field>
   <set>
    <rc><c>   2</c><c>H </c><c>      1.00000000</c><c>      1.00000000</c><c> PAW_PBE H 15Jun2001                    </c></rc>
    <rc><c>   1</c><c>O </c><c>     16.00000000</c><c>      6.00000000</c><c> PAW_PBE O 08Apr2002                    </c></rc>
   </set>
  </array>
 </atominfo>
 <structure name="initialpos" >
  <crystal>
   <varray name="basis" >
    <v>       8.00000000       0.00000000       0.00000000 </v>
    <v>       0.00000000       8.00000000       0.00000000 </v>
    <v>       0.00000000       0.00000000       8.00000000 </v>
   </varray>
   <i name="volume">    512.00000000 </i>
   <varray name="rec_basis" >
    <v>       0.12500000       0.00000000       0.00000000 </v>
    <v>       0.00000000       0.12500000       0.00000000 </v>
    <v>       0.00000000       0.00000000       0.12500000 </v>
   </varray>
  </crystal>
  <varray name="positions" >
   <v>       0.53725507       0.40403665       0.50000000 </v>
   <v>       0.53725507       0.59596335       0.50000000 </v>
   <v>       0.46274493       0.50000000       0.50000000 </v>
  </varray>
 </structure>
 <calculation>
  <scstep>
   <time name="dav">    0.34    0.34</time>
   <time name="total">    1.15    1.16</time>
   <energy>
    <i name="alphaZ">      0.43793512 </i>
    <i name="ewald">     24.54851968 </i>
    <i name="hartreedc">   -385.76897518 </i>
    <i name="XCdc">     32.23254522 </i>
    <i name="pawpsdc">    247.56105404 </i>
    <i name="pawaedc">   -249.42875511 </i>
    <i name="eentropy">      0.01159581 </i>
    <i name="bandstr">    -87.97501282 </i>
    <i name="atom">    456.93688444 </i>
    <i name="e_fr_energy">     38.55579120 </i>
    <i name="e_wo_entrp">     38.54419539 </i>
    <i name="e_0_energy">     38.55192593 </i>
   </energy>
  </scstep>
  <scstep>
   <time name="dav">    0.33    0.33</time>
   <time name="total">    0.34    0.34</time>
   <energy>
    <i name="e_fr_energy">    -12.72955967 </i>
    <i name="e_wo_entrp">    -12.74115548 </i>
    <i name="e_0_energy">    -12.73342494 </i>
   </energy>
  </scstep>
  <scstep>
   <time name="dav">    0.25    0.25</time>
   <time name="total">    0.25    0.28</time>
   <energy>
    <i name="e_fr_energy">    -16.08207993 </i>
    <i name="e_wo_entrp">    -16.09367574 </i>
    <i name="e_0_energy">    -16.08594520 </i>
   </energy>
  </scstep>
  <scstep>
   <time name="dav">    0.42    0.43</time>
   <time name="total">    0.43    0.44</time>
   <energy>
    <i name="e_fr_energy">    -16.11159673 </i>
    <i name="e_wo_entrp">    -16.12319254 </i>
    <i name="e_0_energy">    -16.11546200 </i>
   </energy>
  </scstep>
  <scstep>
   <time name="dav">    0.42    0.42</time>
   <time name="total">    0.53    0.55</time>
   <energy>
    <i name="e_fr_energy">    -16.11159927 </i>
    <i name="e_wo_entrp">    -16.12319508 </i>
    <i name="e_0_energy">    -16.11546454 </i>
   </energy>
  </scstep>
  <scstep>
   <time name="dav">    0.24    0.24</time>
   <time name="total">    1.12    1.20</time>
   <energy>
    <i name="e_fr_energy">    -14.35032664 </i>
    <i name="e_wo_entrp">    -14.36192245 </i>
    <i name="e_0_energy">    -14.35419191 </i>
   </energy>
  </scstep>
  <scstep>
   <time name="dav">    0.42    0.42</time>
   <time name="total">    1.29    1.30</time>
   <energy>
    <i name="e_fr_energy">    -14.23737702 </i>
    <i name="e_wo_entrp">    -14.24897283 </i>
    <i name="e_0_energy">    -14.24124229 </i>
   </energy>
  </scstep>
  <scstep>
   <time name="dav">    0.33    0.33</time>
   <time name="total">    1.19    1.28</time>
   <energy>
    <i name="e_fr_energy">    -14.15838682 </i>
    <i name="e_wo_entrp">    -14.16998263 </i>
    <i name="e_0_energy">    -14.16225209 </i>
   </energy>
  </scstep>
  <scstep>
   <time name="dav">    0.33    0.33</time>
   <time name="total">    1.19    1.20</time>
   <energy>
    <i name="e_fr_energy">    -14.16369494 </i>
    <i name="e_wo_entrp">    -14.17529075 </i>
    <i name="e_0_energy">    -14.16756021 </i>
   </energy>
  </scstep>
  <scstep>
   <time name="dav">    0.24    0.24</time>
   <time name="total">    1.09    1.17</time>
   <energy>
    <i name="e_fr_energy">    -14.17305990 </i>
    <i name="e_wo_entrp">    -14.18465571 </i>
    <i name="e_0_energy">    -14.17692517 </i>
   </energy>
  </scstep>
  <scstep>
   <time name="dav">    0.24    0.25</time>
   <time name="total">    1.09    1.10</time>
   <energy>
    <i name="e_fr_energy">    -14.18008403 </i>
    <i name="e_wo_entrp">    -14.19167984 </i>
    <i name="e_0_energy">    -14.18394930 </i>
   </energy>
  </scstep>
  <scstep>
   <time name="dav">    0.42    0.42</time>
   <time name="total">    1.25    1.27</time>
   <energy>
    <i name="e_fr_energy">    -14.18096936 </i>
    <i name="e_wo_entrp">    -14.19256517 </i>
    <i name="e_0_energy">    -14.18483463 </i>
   </energy>
  </scstep>
  <scstep>
   <time name="dav">    0.33    0.33</time>
   <time name="total">    1.17    1.24</time>
   <energy>
    <i name="e_fr_energy">    -14.18190927 </i>
    <i name="e_wo_entrp">    -14.19350508 </i>
    <i name="e_0_energy">    -14.18577454 </i>
   </energy>
  </scstep>
  <scstep>
   <time name="dav">    0.42    0.42</time>
   <time name="total">    1.26    1.28</time>
   <energy>
    <i name="e_fr_energy">    -14.18211038 </i>
    <i name="e_wo_entrp">    -14.19370619 </i>
    <i name="e_0_energy">    -14.18597565 </i>
   </energy>
  </scstep>
  <scstep>
   <time name="dav">    0.42    0.42</time>
   <time name="total">    1.28    1.36</time>
   <energy>
    <i name="e_fr_energy">    -14.18221969 </i>
    <i name="e_wo_entrp">    -14.19381550 </i>
    <i name="e_0_energy">    -14.18608496 </i>
   </energy>
  </scstep>
  <scstep>
   <time name="dav">    0.42    0.42</time>
   <time name="total">    1.18    1.29</time>
   <energy>
    <i name="alphaZ">      0.43793512 </i>
    <i name="ewald">     24.54851968 </i>
    <i name="hartreedc">   -419.63590289 </i>
    <i name="XCdc">     34.04571600 </i>
    <i name="pawpsdc">    334.02844222 </i>
    <i name="pawaedc">   -336.03748445 </i>
    <i name="eentropy">      0.01159581 </i>
    <i name="bandstr">   -108.51793688 </i>
    <i name="atom">    456.93688444 </i>
    <i name="e_fr_energy">    -14.18223094 </i>
    <i name="e_wo_entrp">    -14.19382675 </i>
    <i name="e_0_energy">    -14.18609621 </i>
   </energy>
  </scstep>
  <parameters_embedded>
   <separator name="dft+d2" >
    <i type="logical" name="LVDW"> F  </i>
   </separator>
  </parameters_embedded>
  <structure>
   <crystal>
    <varray name="basis" >
     <v>       8.00000000       0.00000000       0.00000000 </v>
     <v>       0.00000000       8.00000000       0.00000000 </v>
     <v>       0.00000000       0.00000000       8.00000000 </v>
    </varray>
    <i name="volume">    512.00000000 </i>
    <varray name="rec_basis" >
     <v>       0.12500000       0.00000000       0.00000000 </v>
     <v>       0.00000000       0.12500000       0.00000000 </v>
     <v>       0.00000000       0.00000000       0.12500000 </v>
    </varray>
   </crystal>
   <varray name="positions" >
    <v>       0.53725507       0.40403665       0.50000000 </v>
    <v>       0.53725507       0.59596335       0.50000000 </v>
    <v>       0.46274493       0.50000000       0.50000000 </v>
   </varray>
  </structure>
  <varray name="forces" >
   <v>       0.02887473      -0.04159613       0.00000000 </v>
   <v>       0.02887473       0.04159613       0.00000000 </v>
   <v>      -0.05774946       0.00000000       0.00000000 </v>
  </varray>
  <varray name="stress" >
   <v>      -7.23179628       0.00000000       0.00000000 </v>
   <v>       0.00000000      -6.53644221       0.00000000 </v>
   <v>       0.00000000       0.00000000      -7.86836034 </v>
  </varray>
  <energy>
   <i name="e_fr_energy">    -14.18223094 </i>
   <i name="e_wo_entrp">    -14.18609621 </i>
   <i name="e_0_energy">      0.01159581 </i>
  </energy>
  <time name="totalsc">   18.16   19.69</time>
  <eigenvalues>
   <array>
    <dimension dim="1">band</dimension>
    <dimension dim="2">kpoint</dimension>
    <dimension dim="3">spin</dimension>
    <field>eigene</field>
    <field>occ</field>
    <set>
     <set comment="spin 1">
      <set comment="kpoint 1">
       <r>  -25.1677    1.0000 </r>
       <r>  -12.9282    1.0000 </r>
       <r>   -9.1198    1.0000 </r>
       <r>   -7.0433    1.0000 </r>
       <r>   -1.0735    0.0000 </r>
       <r>    1.1085    0.0000 </r>
       <r>    1.2199    0.0000 </r>
       <r>    1.7325    0.0000 </r>
      </set>
     </set>
    </set>
   </array>
  </eigenvalues>
  <separator name="orbital magnetization" >
   <v name="MAGDIPOLOUT">      0.00000000      0.00000000      0.00000000</v>
  </separator>
  <dos>
   <i name="efermi">     -6.87495142 </i>
   <total>
    <array>
     <dimension dim="1">gridpoints</dimension>
     <dimension dim="2">spin</dimension>
     <field>energy</field>
     <field>total</field>
     <field>integrated</field>
     <set>
      <set comment="spin 1">
       <r>   -27.1677     0.0000     0.0000 </r>
       <r>   -27.0647     0.0000     0.0000 </r>
       <r>   -26.9617     0.0000     0.0000 </r>
       <r>   -26.8587     0.0000     0.0000 </r>
       <r>   -26.7557     0.0000     0.0000 </r>
       <r>   -26.6527     0.0000     0.0000 </r>
       <r>   -26.5497     0.0000     0.0000 </r>
       <r>   -26.4467     0.0000     0.0000 </r>
       <r>   -26.3437     0.0000     0.0000 </r>
       <r>   -26.2407     0.0000     0.0000 </r>
       <r>   -26.1377     0.0000     0.0000 </r>
       <r>   -26.0347     0.0000     0.0000 </r>
       <r>   -25.9317     0.0000     0.0000 </r>
       <r>   -25.8287    -0.0003     0.0000 </r>
       <r>   -25.7257    -0.0053    -0.0006 </r>
       <r>   -25.6227    -0.0523    -0.0060 </r>
       <r>   -25.5197    -0.2531    -0.0320 </r>
       <r>   -25.4167    -0.3763    -0.0708 </r>
       <r>   -25.3137     1.2718     0.0602 </r>
       <r>   -25.2107     5.6809     0.6453 </r>
       <r>   -25.1077     8.1364     1.4834 </r>
       <r>   -25.0047     4.8952     1.9876 </r>
       <r>   -24.9017     0.7802     2.0680 </r>
       <r>   -24.7987    -0.4121     2.0255 </r>
       <r>   -24.6957    -0.2067     2.0042 </r>
       <r>   -24.5927    -0.0375     2.0004 </r>
       <r>   -24.4897    -0.0034     2.0000 </r>
       <r>   -24.3867    -0.0002     2.0000 </r>
       <r>   -24.2837     0.0000     2.0000 </r>
       <r>   -24.1807     0.0000     2.0000 </r>
       <r>   -24.0777     0.0000     2.0000 </r>
       <r>   -23.9747     0.0000     2.0000 </r>
       <r>   -23.8717     0.0000     2.0000 </r>
       <r>   -23.7687     0.0000     2.0000 </r>
       <r>   -23.6657     0.0000     2.0000 </r>
       <r>   -23.5627     0.0000     2.0000 </r>
       <r>   -23.4597     0.0000     2.0000 </r>
       <r>   -23.3567     0.0000     2.0000 </r>
       <r>   -23.2537     0.0000     2.0000 </r>
       <r>   -23.1507     0.0000     2.0000 </r>
       <r>   -23.0477     0.0000     2.0000 </r>
       <r>   -22.9446     0.0000     2.0000 </r>
       <r>   -22.8416     0.0000     2.0000 </r>
       <r>   -22.7386     0.0000     2.0000 </r>
       <r>   -22.6356     0.0000     2.0000 </r>
       <r>   -22.5326     0.0000     2.0000 </r>
       <r>   -22.4296     0.0000     2.0000 </r>
       <r>   -22.3266     0.0000     2.0000 </r>
       <r>   -22.2236     0.0000     2.0000 </r>
       <r>   -22.1206     0.0000     2.0000 </r>
       <r>   -22.0176     0.0000     2.0000 </r>
       <r>   -21.9146     0.0000     2.0000 </r>
       <r>   -21.8116     0.0000     2.0000 </r>
       <r>   -21.7086     0.0000     2.0000 </r>
       <r>   -21.6056     0.0000     2.0000 </r>
       <r>   -21.5026     0.0000     2.0000 </r>
       <r>   -21.3996     0.0000     2.0000 </r>
       <r>   -21.2966     0.0000     2.0000 </r>
       <r>   -21.1936     0.0000     2.0000 </r>
       <r>   -21.0906     0.0000     2.0000 </r>
       <r>   -20.9876     0.0000     2.0000 </r>
       <r>   -20.8846     0.0000     2.0000 </r>
       <r>   -20.7816     0.0000     2.0000 </r>
       <r>   -20.6786     0.0000     2.0000 </r>
       <r>   -20.5756     0.0000     2.0000 </r>
       <r>   -20.4726     0.0000     2.0000 </r>
       <r>   -20.3696     0.0000     2.0000 </r>
       <r>   -20.2666     0.0000     2.0000 </r>
       <r>   -20.1636     0.0000     2.0000 </r>
       <r>   -20.0606     0.0000     2.0000 </r>
       <r>   -19.9576     0.0000     2.0000 </r>
       <r>   -19.8546     0.0000     2.0000 </r>
       <r>   -19.7516     0.0000     2.0000 </r>
       <r>   -19.6486     0.0000     2.0000 </r>
       <r>   -19.5456     0.0000     2.0000 </r>
       <r>   -19.4426     0.0000     2.0000 </r>
       <r>   -19.3396     0.0000     2.0000 </r>
       <r>   -19.2366     0.0000     2.0000 </r>
       <r>   -19.1336     0.0000     2.0000 </r>
       <r>   -19.0306     0.0000     2.0000 </r>
       <r>   -18.9276     0.0000     2.0000 </r>
       <r>   -18.8246     0.0000     2.0000 </r>
       <r>   -18.7216     0.0000     2.0000 </r>
       <r>   -18.6186     0.0000     2.0000 </r>
       <r>   -18.5156     0.0000     2.0000 </r>
       <r>   -18.4126     0.0000     2.0000 </r>
       <r>   -18.3096     0.0000     2.0000 </r>
       <r>   -18.2066     0.0000     2.0000 </r>
       <r>   -18.1036     0.0000     2.0000 </r>
       <r>   -18.0006     0.0000     2.0000 </r>
       <r>   -17.8976     0.0000     2.0000 </r>
       <r>   -17.7946     0.0000     2.0000 </r>
       <r>   -17.6916     0.0000     2.0000 </r>
       <r>   -17.5886     0.0000     2.0000 </r>
       <r>   -17.4856     0.0000     2.0000 </r>
       <r>   -17.3826     0.0000     2.0000 </r>
       <r>   -17.2796     0.0000     2.0000 </r>
       <r>   -17.1766     0.0000     2.0000 </r>
       <r>   -17.0736     0.0000     2.0000 </r>
       <r>   -16.9706     0.0000     2.0000 </r>
       <r>   -16.8676     0.0000     2.0000 </r>
       <r>   -16.7646     0.0000     2.0000 </r>
       <r>   -16.6616     0.0000     2.0000 </r>
       <r>   -16.5586     0.0000     2.0000 </r>
       <r>   -16.4556     0.0000     2.0000 </r>
       <r>   -16.3526     0.0000     2.0000 </r>
       <r>   -16.2496     0.0000     2.0000 </r>
       <r>   -16.1466     0.0000     2.0000 </r>
       <r>   -16.0436     0.0000     2.0000 </r>
       <r>   -15.9406     0.0000     2.0000 </r>
       <r>   -15.8376     0.0000     2.0000 </r>
       <r>   -15.7346     0.0000     2.0000 </r>
       <r>   -15.6316     0.0000     2.0000 </r>
       <r>   -15.5286     0.0000     2.0000 </r>
       <r>   -15.4256     0.0000     2.0000 </r>
       <r>   -15.3226     0.0000     2.0000 </r>
       <r>   -15.2196     0.0000     2.0000 </r>
       <r>   -15.1166     0.0000     2.0000 </r>
       <r>   -15.0136     0.0000     2.0000 </r>
       <r>   -14.9106     0.0000     2.0000 </r>
       <r>   -14.8076     0.0000     2.0000 </r>
       <r>   -14.7046     0.0000     2.0000 </r>
       <r>   -14.6016     0.0000     2.0000 </r>
       <r>   -14.4986     0.0000     2.0000 </r>
       <r>   -14.3956     0.0000     2.0000 </r>
       <r>   -14.2926     0.0000     2.0000 </r>
       <r>   -14.1896     0.0000     2.0000 </r>
       <r>   -14.0866     0.0000     2.0000 </r>
       <r>   -13.9836     0.0000     2.0000 </r>
       <r>   -13.8806     0.0000     2.0000 </r>
       <r>   -13.7776     0.0000     2.0000 </r>
       <r>   -13.6746     0.0000     2.0000 </r>
       <r>   -13.5716    -0.0005     1.9999 </r>
       <r>   -13.4686    -0.0082     1.9991 </r>
       <r>   -13.3656    -0.0723     1.9917 </r>
       <r>   -13.2626    -0.3030     1.9605 </r>
       <r>   -13.1596    -0.2896     1.9306 </r>
       <r>   -13.0566     1.8765     2.1239 </r>
       <r>   -12.9536     6.4344     2.7866 </r>
       <r>   -12.8506     7.9438     3.6049 </r>
       <r>   -12.7476     4.0669     4.0238 </r>
       <r>   -12.6446     0.3732     4.0622 </r>
       <r>   -12.5416    -0.4122     4.0197 </r>
       <r>   -12.4386    -0.1634     4.0029 </r>
       <r>   -12.3356    -0.0261     4.0002 </r>
       <r>   -12.2326    -0.0021     4.0000 </r>
       <r>   -12.1296    -0.0001     4.0000 </r>
       <r>   -12.0266     0.0000     4.0000 </r>
       <r>   -11.9236     0.0000     4.0000 </r>
       <r>   -11.8206     0.0000     4.0000 </r>
       <r>   -11.7176     0.0000     4.0000 </r>
       <r>   -11.6146     0.0000     4.0000 </r>
       <r>   -11.5116     0.0000     4.0000 </r>
       <r>   -11.4086     0.0000     4.0000 </r>
       <r>   -11.3056     0.0000     4.0000 </r>
       <r>   -11.2026     0.0000     4.0000 </r>
       <r>   -11.0996     0.0000     4.0000 </r>
       <r>   -10.9966     0.0000     4.0000 </r>
       <r>   -10.8936     0.0000     4.0000 </r>
       <r>   -10.7906     0.0000     4.0000 </r>
       <r>   -10.6876     0.0000     4.0000 </r>
       <r>   -10.5846     0.0000     4.0000 </r>
       <r>   -10.4816     0.0000     4.0000 </r>
       <r>   -10.3786     0.0000     4.0000 </r>
       <r>   -10.2756     0.0000     4.0000 </r>
       <r>   -10.1726     0.0000     4.0000 </r>
       <r>   -10.0696     0.0000     4.0000 </r>
       <r>    -9.9666     0.0000     4.0000 </r>
       <r>    -9.8636     0.0000     4.0000 </r>
       <r>    -9.7606    -0.0005     3.9999 </r>
       <r>    -9.6576    -0.0087     3.9990 </r>
       <r>    -9.5546    -0.0758     3.9912 </r>
       <r>    -9.4516    -0.3105     3.9593 </r>
       <r>    -9.3486    -0.2711     3.9313 </r>
       <r>    -9.2456     1.9766     4.1349 </r>
       <r>    -9.1426     6.5414     4.8087 </r>
       <r>    -9.0396     7.8980     5.6222 </r>
       <r>    -8.9366     3.9418     6.0282 </r>
       <r>    -8.8336     0.3200     6.0612 </r>
       <r>    -8.7306    -0.4098     6.0190 </r>
       <r>    -8.6276    -0.1573     6.0027 </r>
       <r>    -8.5246    -0.0246     6.0002 </r>
       <r>    -8.4216    -0.0020     6.0000 </r>
       <r>    -8.3186    -0.0001     6.0000 </r>
       <r>    -8.2156     0.0000     6.0000 </r>
       <r>    -8.1126     0.0000     6.0000 </r>
       <r>    -8.0096     0.0000     6.0000 </r>
       <r>    -7.9066     0.0000     6.0000 </r>
       <r>    -7.8036     0.0000     6.0000 </r>
       <r>    -7.7006    -0.0003     6.0000 </r>
       <r>    -7.5976    -0.0058     5.9994 </r>
       <r>    -7.4946    -0.0561     5.9936 </r>
       <r>    -7.3916    -0.2637     5.9664 </r>
       <r>    -7.2886    -0.3625     5.9291 </r>
       <r>    -7.1856     1.3929     6.0726 </r>
       <r>    -7.0826     5.8481     6.6749 </r>
       <r>    -6.9796     8.1114     7.5104 </r>
       <r>    -6.8766     4.7184     7.9964 </r>
       <r>    -6.7736     0.6848     8.0669 </r>
       <r>    -6.6706    -0.4148     8.0242 </r>
       <r>    -6.5676    -0.1970     8.0039 </r>
       <r>    -6.4646    -0.0347     8.0003 </r>
       <r>    -6.3616    -0.0031     8.0000 </r>
       <r>    -6.2586    -0.0001     8.0000 </r>
       <r>    -6.1556     0.0000     8.0000 </r>
       <r>    -6.0526     0.0000     8.0000 </r>
       <r>    -5.9496     0.0000     8.0000 </r>
       <r>    -5.8466     0.0000     8.0000 </r>
       <r>    -5.7436     0.0000     8.0000 </r>
       <r>    -5.6406     0.0000     8.0000 </r>
       <r>    -5.5376     0.0000     8.0000 </r>
       <r>    -5.4346     0.0000     8.0000 </r>
       <r>    -5.3316     0.0000     8.0000 </r>
       <r>    -5.2286     0.0000     8.0000 </r>
       <r>    -5.1256     0.0000     8.0000 </r>
       <r>    -5.0226     0.0000     8.0000 </r>
       <r>    -4.9196     0.0000     8.0000 </r>
       <r>    -4.8166     0.0000     8.0000 </r>
       <r>    -4.7136     0.0000     8.0000 </r>
       <r>    -4.6106     0.0000     8.0000 </r>
       <r>    -4.5076     0.0000     8.0000 </r>
       <r>    -4.4046     0.0000     8.0000 </r>
       <r>    -4.3016     0.0000     8.0000 </r>
       <r>    -4.1986     0.0000     8.0000 </r>
       <r>    -4.0956     0.0000     8.0000 </r>
       <r>    -3.9926     0.0000     8.0000 </r>
       <r>    -3.8896     0.0000     8.0000 </r>
       <r>    -3.7865     0.0000     8.0000 </r>
       <r>    -3.6835     0.0000     8.0000 </r>
       <r>    -3.5805     0.0000     8.0000 </r>
       <r>    -3.4775     0.0000     8.0000 </r>
       <r>    -3.3745     0.0000     8.0000 </r>
       <r>    -3.2715     0.0000     8.0000 </r>
       <r>    -3.1685     0.0000     8.0000 </r>
       <r>    -3.0655     0.0000     8.0000 </r>
       <r>    -2.9625     0.0000     8.0000 </r>
       <r>    -2.8595     0.0000     8.0000 </r>
       <r>    -2.7565     0.0000     8.0000 </r>
       <r>    -2.6535     0.0000     8.0000 </r>
       <r>    -2.5505     0.0000     8.0000 </r>
       <r>    -2.4475     0.0000     8.0000 </r>
       <r>    -2.3445     0.0000     8.0000 </r>
       <r>    -2.2415     0.0000     8.0000 </r>
       <r>    -2.1385     0.0000     8.0000 </r>
       <r>    -2.0355     0.0000     8.0000 </r>
       <r>    -1.9325     0.0000     8.0000 </r>
       <r>    -1.8295     0.0000     8.0000 </r>
       <r>    -1.7265    -0.0004     8.0000 </r>
       <r>    -1.6235    -0.0065     7.9993 </r>
       <r>    -1.5205    -0.0607     7.9930 </r>
       <r>    -1.4175    -0.2757     7.9646 </r>
       <r>    -1.3145    -0.3440     7.9292 </r>
       <r>    -1.2115     1.5346     8.0873 </r>
       <r>    -1.1085     6.0327     8.7086 </r>
       <r>    -1.0055     8.0727     9.5401 </r>
       <r>    -0.9025     4.5189    10.0056 </r>
       <r>    -0.7995     0.5829    10.0656 </r>
       <r>    -0.6965    -0.4160    10.0228 </r>
       <r>    -0.5935    -0.1864    10.0036 </r>
       <r>    -0.4905    -0.0319    10.0003 </r>
       <r>    -0.3875    -0.0028    10.0000 </r>
       <r>    -0.2845    -0.0001    10.0000 </r>
       <r>    -0.1815     0.0000    10.0000 </r>
       <r>    -0.0785     0.0000    10.0000 </r>
       <r>     0.0245     0.0000    10.0000 </r>
       <r>     0.1275     0.0000    10.0000 </r>
       <r>     0.2305     0.0000    10.0000 </r>
       <r>     0.3335     0.0000    10.0000 </r>
       <r>     0.4365    -0.0002    10.0000 </r>
       <r>     0.5395    -0.0041     9.9996 </r>
       <r>     0.6425    -0.0454     9.9949 </r>
       <r>     0.7455    -0.2582     9.9683 </r>
       <r>     0.8485    -0.6047     9.9060 </r>
       <r>     0.9515     0.5269     9.9603 </r>
       <r>     1.0545     5.8918    10.5671 </r>
       <r>     1.1575    12.9366    11.8996 </r>
       <r>     1.2605    13.4950    13.2896 </r>
       <r>     1.3635     6.6706    13.9767 </r>
       <r>     1.4665     0.5429    14.0326 </r>
       <r>     1.5695     0.1759    14.0507 </r>
       <r>     1.6725     4.5887    14.5233 </r>
       <r>     1.7755     8.0771    15.3553 </r>
       <r>     1.8785     5.6750    15.9398 </r>
       <r>     1.9815     1.2715    16.0708 </r>
       <r>     2.0845    -0.3763    16.0320 </r>
       <r>     2.1875    -0.2531    16.0060 </r>
       <r>     2.2905    -0.0523    16.0006 </r>
       <r>     2.3935    -0.0053    16.0000 </r>
       <r>     2.4965    -0.0003    16.0000 </r>
       <r>     2.5995     0.0000    16.0000 </r>
       <r>     2.7025     0.0000    16.0000 </r>
       <r>     2.8055     0.0000    16.0000 </r>
       <r>     2.9085     0.0000    16.0000 </r>
       <r>     3.0115     0.0000    16.0000 </r>
       <r>     3.1145     0.0000    16.0000 </r>
       <r>     3.2175     0.0000    16.0000 </r>
       <r>     3.3205     0.0000    16.0000 </r>
       <r>     3.4235     0.0000    16.0000 </r>
       <r>     3.5265     0.0000    16.0000 </r>
       <r>     3.6295     0.0000    16.0000 </r>
       <r>     3.7325     0.0000    16.0000 </r>
      </set>
     </set>
    </array>
   </total>
  </dos>
 </calculation>
 <structure name="finalpos" >
  <crystal>
   <varray name="basis" >
    <v>       8.00000000       0.00000000       0.00000000 </v>
    <v>       0.00000000       8.00000000       0.00000000 </v>
    <v>       0.00000000       0.00000000       8.00000000 </v>
   </varray>
   <i name="volume">    512.00000000 </i>
   <varray name="rec_basis" >
    <v>       0.12500000       0.00000000       0.00000000 </v>
    <v>       0.00000000       0.12500000       0.00000000 </v>
    <v>       0.00000000       0.00000000       0.12500000 </v>
   </varray>
  </crystal>
  <varray name="positions" >
   <v>       0.53725507       0.40403665       0.50000000 </v>
   <v>       0.53725507       0.59596335       0.50000000 </v>
   <v>       0.46274493       0.50000000       0.50000000 </v>
  </varray>
 </structure>
</modeling>
