 running on    1 nodes
 distr:  one band on    1 nodes,    1 groups
 vasp.5.2.12 11Nov11 complex                                                    
  
 POSCAR found :  2 types and       3 ions
 LDA part: xc-table for Pade appr. of Perdew
 POSCAR, INCAR and KPOINTS ok, starting setup
 WARNING: small aliasing (wrap around) errors must be expected
 FFT: planning ...(           1 )
 WAVECAR not read
 entering main loop
       N       E                     dE             d eps       ncg     rms          rms(c)
DAV:   1     0.385557912029E+02    0.38556E+02   -0.19837E+03    24   0.357E+02
DAV:   2    -0.127295596702E+02   -0.51285E+02   -0.51285E+02    24   0.146E+02
DAV:   3    -0.160820799258E+02   -0.33525E+01   -0.33525E+01    16   0.409E+01
DAV:   4    -0.161115967268E+02   -0.29517E-01   -0.29517E-01    32   0.436E+00
DAV:   5    -0.161115992730E+02   -0.25462E-05   -0.25468E-05    32   0.406E-02    0.739E+00
DAV:   6    -0.143503266434E+02    0.17613E+01   -0.83079E+00    16   0.198E+01    0.303E+00
DAV:   7    -0.142373770219E+02    0.11295E+00   -0.10472E-01    32   0.249E+00    0.189E+00
DAV:   8    -0.141583868156E+02    0.78990E-01   -0.71701E-02    24   0.258E+00    0.216E-01
DAV:   9    -0.141636949366E+02   -0.53081E-02   -0.44706E-03    24   0.414E-01    0.134E-01
DAV:  10    -0.141730599038E+02   -0.93650E-02   -0.44778E-03    16   0.558E-01    0.632E-02
DAV:  11    -0.141800840322E+02   -0.70241E-02   -0.47767E-03    16   0.383E-01    0.965E-02
DAV:  12    -0.141809693565E+02   -0.88532E-03   -0.12280E-03    32   0.227E-01    0.242E-02
DAV:  13    -0.141819092727E+02   -0.93992E-03   -0.11052E-04    24   0.760E-02    0.858E-03
DAV:  14    -0.141821103761E+02   -0.20110E-03   -0.17474E-05    32   0.237E-02    0.528E-03
DAV:  15    -0.141822196942E+02   -0.10932E-03   -0.11357E-05    32   0.193E-02    0.614E-04
DAV:  16    -0.141822309402E+02   -0.11246E-04   -0.78273E-07    32   0.501E-03
   1 F= -.14182231E+02 E0= -.14186096E+02  d E =0.115958E-01
 writing wavefunctions
NPROCS =  1
