unknown system                          
           1
     8.000000    0.000000    0.000000
     0.000000    8.000000    0.000000
     0.000000    0.000000    8.000000
   H    O 
   2   1
Direct configuration=     1
   0.53725507  0.40403665  0.50000000
   0.53725507  0.59596335  0.50000000
   0.46274493  0.50000000  0.50000000
