   2   2   0   0
  0.5000000E+03  0.1000000E-08  0.1000000E-08  0.1000000E-08  0.5000000E-15
  1.000000000000000E-004
  CAR 
 unknown system                          
      3.05794903    -31.00118346  301     -8.78400446      1.00000000
    -31.001  0.0000E+00  0.0000E+00
    -30.888  0.0000E+00  0.0000E+00
    -30.774  0.0000E+00  0.0000E+00
    -30.661 -0.5224E-28 -0.5931E-29
    -30.547 -0.4346E-24 -0.4935E-25
    -30.434 -0.1888E-20 -0.2144E-21
    -30.320 -0.4279E-17 -0.4860E-18
    -30.206 -0.5051E-14 -0.5739E-15
    -30.093 -0.2998E-11 -0.3409E-12
    -29.979 -0.9473E-09 -0.1079E-09
    -29.866 -0.1542E-06 -0.1762E-07
    -29.752 -0.1284E-04 -0.1476E-05
    -29.639 -0.5398E-03 -0.6276E-04
    -29.525 -0.1116E-01 -0.1329E-02
    -29.412 -0.1066E+00 -0.1343E-01
    -29.298 -0.3804E+00 -0.5661E-01
    -29.185  0.2463E+00 -0.2864E-01
    -29.071  0.4181E+01  0.4460E+00
    -28.958  0.8042E+01  0.1359E+01
    -28.844  0.5403E+01  0.1972E+01
    -28.731  0.8302E+00  0.2067E+01
    -28.617 -0.4069E+00  0.2020E+01
    -28.504 -0.1589E+00  0.2002E+01
    -28.390 -0.2029E-01  0.2000E+01
    -28.276 -0.1166E-02  0.2000E+01
    -28.163 -0.3262E-04  0.2000E+01
    -28.049 -0.4587E-06  0.2000E+01
    -27.936 -0.3291E-08  0.2000E+01
    -27.822 -0.1215E-10  0.2000E+01
    -27.709 -0.2347E-13  0.2000E+01
    -27.595  0.0000E+00  0.2000E+01
    -27.482  0.0000E+00  0.2000E+01
    -27.368  0.0000E+00  0.2000E+01
    -27.255  0.0000E+00  0.2000E+01
    -27.141  0.0000E+00  0.2000E+01
    -27.028  0.0000E+00  0.2000E+01
    -26.914  0.0000E+00  0.2000E+01
    -26.801  0.0000E+00  0.2000E+01
    -26.687  0.0000E+00  0.2000E+01
    -26.573  0.0000E+00  0.2000E+01
    -26.460  0.0000E+00  0.2000E+01
    -26.346  0.0000E+00  0.2000E+01
    -26.233  0.0000E+00  0.2000E+01
    -26.119  0.0000E+00  0.2000E+01
    -26.006  0.0000E+00  0.2000E+01
    -25.892  0.0000E+00  0.2000E+01
    -25.779  0.0000E+00  0.2000E+01
    -25.665  0.0000E+00  0.2000E+01
    -25.552  0.0000E+00  0.2000E+01
    -25.438  0.0000E+00  0.2000E+01
    -25.325  0.0000E+00  0.2000E+01
    -25.211  0.0000E+00  0.2000E+01
    -25.098  0.0000E+00  0.2000E+01
    -24.984  0.0000E+00  0.2000E+01
    -24.871  0.0000E+00  0.2000E+01
    -24.757  0.0000E+00  0.2000E+01
    -24.643  0.0000E+00  0.2000E+01
    -24.530  0.0000E+00  0.2000E+01
    -24.416  0.0000E+00  0.2000E+01
    -24.303  0.0000E+00  0.2000E+01
    -24.189  0.0000E+00  0.2000E+01
    -24.076  0.0000E+00  0.2000E+01
    -23.962  0.0000E+00  0.2000E+01
    -23.849  0.0000E+00  0.2000E+01
    -23.735  0.0000E+00  0.2000E+01
    -23.622  0.0000E+00  0.2000E+01
    -23.508  0.0000E+00  0.2000E+01
    -23.395  0.0000E+00  0.2000E+01
    -23.281  0.0000E+00  0.2000E+01
    -23.168  0.0000E+00  0.2000E+01
    -23.054  0.0000E+00  0.2000E+01
    -22.941  0.0000E+00  0.2000E+01
    -22.827  0.0000E+00  0.2000E+01
    -22.713  0.0000E+00  0.2000E+01
    -22.600  0.0000E+00  0.2000E+01
    -22.486  0.0000E+00  0.2000E+01
    -22.373  0.0000E+00  0.2000E+01
    -22.259  0.0000E+00  0.2000E+01
    -22.146  0.0000E+00  0.2000E+01
    -22.032  0.0000E+00  0.2000E+01
    -21.919  0.0000E+00  0.2000E+01
    -21.805  0.0000E+00  0.2000E+01
    -21.692  0.0000E+00  0.2000E+01
    -21.578  0.0000E+00  0.2000E+01
    -21.465  0.0000E+00  0.2000E+01
    -21.351  0.0000E+00  0.2000E+01
    -21.238  0.0000E+00  0.2000E+01
    -21.124  0.0000E+00  0.2000E+01
    -21.011  0.0000E+00  0.2000E+01
    -20.897  0.0000E+00  0.2000E+01
    -20.783  0.0000E+00  0.2000E+01
    -20.670  0.0000E+00  0.2000E+01
    -20.556  0.0000E+00  0.2000E+01
    -20.443  0.0000E+00  0.2000E+01
    -20.329  0.0000E+00  0.2000E+01
    -20.216  0.0000E+00  0.2000E+01
    -20.102  0.0000E+00  0.2000E+01
    -19.989  0.0000E+00  0.2000E+01
    -19.875  0.0000E+00  0.2000E+01
    -19.762  0.0000E+00  0.2000E+01
    -19.648  0.0000E+00  0.2000E+01
    -19.535  0.0000E+00  0.2000E+01
    -19.421  0.0000E+00  0.2000E+01
    -19.308  0.0000E+00  0.2000E+01
    -19.194  0.0000E+00  0.2000E+01
    -19.080  0.0000E+00  0.2000E+01
    -18.967  0.0000E+00  0.2000E+01
    -18.853  0.0000E+00  0.2000E+01
    -18.740  0.0000E+00  0.2000E+01
    -18.626  0.0000E+00  0.2000E+01
    -18.513  0.0000E+00  0.2000E+01
    -18.399  0.0000E+00  0.2000E+01
    -18.286  0.0000E+00  0.2000E+01
    -18.172  0.0000E+00  0.2000E+01
    -18.059  0.0000E+00  0.2000E+01
    -17.945  0.0000E+00  0.2000E+01
    -17.832  0.0000E+00  0.2000E+01
    -17.718  0.0000E+00  0.2000E+01
    -17.605  0.0000E+00  0.2000E+01
    -17.491  0.0000E+00  0.2000E+01
    -17.378  0.0000E+00  0.2000E+01
    -17.264  0.0000E+00  0.2000E+01
    -17.150  0.0000E+00  0.2000E+01
    -17.037  0.0000E+00  0.2000E+01
    -16.923  0.0000E+00  0.2000E+01
    -16.810  0.0000E+00  0.2000E+01
    -16.696  0.0000E+00  0.2000E+01
    -16.583  0.0000E+00  0.2000E+01
    -16.469  0.0000E+00  0.2000E+01
    -16.356  0.0000E+00  0.2000E+01
    -16.242  0.0000E+00  0.2000E+01
    -16.129  0.0000E+00  0.2000E+01
    -16.015  0.0000E+00  0.2000E+01
    -15.902  0.0000E+00  0.2000E+01
    -15.788  0.0000E+00  0.2000E+01
    -15.675  0.0000E+00  0.2000E+01
    -15.561 -0.6308E-26  0.2000E+01
    -15.448 -0.3738E-22  0.2000E+01
    -15.334 -0.1156E-18  0.2000E+01
    -15.220 -0.1864E-15  0.2000E+01
    -15.107 -0.1516E-12  0.2000E+01
    -14.993 -0.6572E-10  0.2000E+01
    -14.880 -0.1470E-07  0.2000E+01
    -14.766 -0.1688E-05  0.2000E+01
    -14.653 -0.9860E-04  0.2000E+01
    -14.539 -0.2874E-02  0.2000E+01
    -14.426 -0.4018E-01  0.1995E+01
    -14.312 -0.2415E+00  0.1968E+01
    -14.199 -0.3363E+00  0.1930E+01
    -14.085  0.1866E+01  0.2141E+01
    -13.972  0.6766E+01  0.2910E+01
    -13.858  0.7452E+01  0.3755E+01
    -13.745  0.2711E+01  0.4063E+01
    -13.631 -0.1914E+00  0.4042E+01
    -13.517 -0.3007E+00  0.4007E+01
    -13.404 -0.6047E-01  0.4001E+01
    -13.290 -0.5010E-02  0.4000E+01
    -13.177 -0.1966E-03  0.4000E+01
    -13.063 -0.3832E-05  0.4000E+01
    -12.950 -0.3786E-07  0.4000E+01
    -12.836 -0.1918E-09  0.4000E+01
    -12.723 -0.5201E-12  0.4000E+01
    -12.609 -0.8810E-11  0.4000E+01
    -12.496 -0.2669E-08  0.4000E+01
    -12.382 -0.4166E-06  0.4000E+01
    -12.269 -0.3324E-04  0.4000E+01
    -12.155 -0.1337E-02  0.4000E+01
    -12.042 -0.2637E-01  0.3997E+01
    -11.928 -0.2389E+00  0.3970E+01
    -11.815 -0.7849E+00  0.3881E+01
    -11.701  0.7672E+00  0.3968E+01
    -11.587  0.9033E+01  0.4993E+01
    -11.474  0.1617E+02  0.6829E+01
    -11.360  0.1015E+02  0.7981E+01
    -11.247  0.1298E+01  0.8129E+01
    -11.133 -0.8101E+00  0.8037E+01
    -11.020 -0.2866E+00  0.8004E+01
    -10.906 -0.3462E-01  0.8000E+01
    -10.793 -0.1898E-02  0.8000E+01
    -10.679 -0.5080E-04  0.8000E+01
    -10.566 -0.6841E-06  0.8000E+01
    -10.452 -0.4704E-08  0.8000E+01
    -10.339 -0.1666E-10  0.8000E+01
    -10.225 -0.3137E-13  0.8000E+01
    -10.112 -0.7207E-13  0.8000E+01
     -9.998 -0.3358E-10  0.8000E+01
     -9.885 -0.8112E-08  0.8000E+01
     -9.771 -0.1007E-05  0.8000E+01
     -9.657 -0.6368E-04  0.8000E+01
     -9.544 -0.2015E-02  0.8000E+01
     -9.430 -0.3078E-01  0.7996E+01
     -9.317 -0.2064E+00  0.7973E+01
     -9.203 -0.3830E+00  0.7929E+01
     -9.090  0.1410E+01  0.8089E+01
     -8.976  0.6254E+01  0.8799E+01
     -8.863  0.7762E+01  0.9681E+01
     -8.749  0.3283E+01  0.1005E+02
     -8.636 -0.5041E-01  0.1005E+02
     -8.522 -0.3359E+00  0.1001E+02
     -8.409 -0.7660E-01  0.1000E+02
     -8.295 -0.6962E-02  0.1000E+02
     -8.182 -0.2971E-03  0.1000E+02
     -8.068 -0.6270E-05  0.1000E+02
     -7.955 -0.6700E-07  0.1000E+02
     -7.841 -0.3667E-09  0.1000E+02
     -7.727 -0.1037E-11  0.1000E+02
     -7.614  0.0000E+00  0.1000E+02
     -7.500  0.0000E+00  0.1000E+02
     -7.387  0.0000E+00  0.1000E+02
     -7.273  0.0000E+00  0.1000E+02
     -7.160  0.0000E+00  0.1000E+02
     -7.046  0.0000E+00  0.1000E+02
     -6.933  0.0000E+00  0.1000E+02
     -6.819  0.0000E+00  0.1000E+02
     -6.706  0.0000E+00  0.1000E+02
     -6.592  0.0000E+00  0.1000E+02
     -6.479  0.0000E+00  0.1000E+02
     -6.365  0.0000E+00  0.1000E+02
     -6.252  0.0000E+00  0.1000E+02
     -6.138  0.0000E+00  0.1000E+02
     -6.024  0.0000E+00  0.1000E+02
     -5.911  0.0000E+00  0.1000E+02
     -5.797  0.0000E+00  0.1000E+02
     -5.684  0.0000E+00  0.1000E+02
     -5.570  0.0000E+00  0.1000E+02
     -5.457  0.0000E+00  0.1000E+02
     -5.343  0.0000E+00  0.1000E+02
     -5.230  0.0000E+00  0.1000E+02
     -5.116  0.0000E+00  0.1000E+02
     -5.003  0.0000E+00  0.1000E+02
     -4.889  0.0000E+00  0.1000E+02
     -4.776  0.0000E+00  0.1000E+02
     -4.662  0.0000E+00  0.1000E+02
     -4.549  0.0000E+00  0.1000E+02
     -4.435  0.0000E+00  0.1000E+02
     -4.322  0.0000E+00  0.1000E+02
     -4.208  0.0000E+00  0.1000E+02
     -4.094  0.0000E+00  0.1000E+02
     -3.981  0.0000E+00  0.1000E+02
     -3.867  0.0000E+00  0.1000E+02
     -3.754 -0.8829E-27  0.1000E+02
     -3.640 -0.6326E-23  0.1000E+02
     -3.527 -0.2366E-19  0.1000E+02
     -3.413 -0.4615E-16  0.1000E+02
     -3.300 -0.4492E-13  0.1000E+02
     -3.186 -0.2390E-10  0.1000E+02
     -3.073 -0.6485E-08  0.1000E+02
     -2.959 -0.9057E-06  0.1000E+02
     -2.846 -0.6454E-04  0.1000E+02
     -2.732 -0.2311E-02  0.1000E+02
     -2.619 -0.4029E-01  0.9995E+01
     -2.505 -0.3165E+00  0.9959E+01
     -2.392 -0.8139E+00  0.9867E+01
     -2.278  0.1644E+01  0.1005E+02
     -2.164  0.1078E+02  0.1128E+02
     -2.051  0.1609E+02  0.1310E+02
     -1.937  0.8392E+01  0.1406E+02
     -1.824  0.5040E+00  0.1411E+02
     -1.710 -0.7619E+00  0.1403E+02
     -1.597 -0.2142E+00  0.1400E+02
     -1.483 -0.2248E-01  0.1400E+02
     -1.370 -0.1090E-02  0.1400E+02
     -1.256 -0.2598E-04  0.1400E+02
     -1.143 -0.3215E-06  0.1400E+02
     -1.029 -0.1101E-05  0.1400E+02
     -0.916 -0.6856E-04  0.1400E+02
     -0.802 -0.2140E-02  0.1400E+02
     -0.689 -0.3221E-01  0.1400E+02
     -0.575 -0.2122E+00  0.1397E+02
     -0.461 -0.3771E+00  0.1393E+02
     -0.348  0.1483E+01  0.1410E+02
     -0.234  0.6343E+01  0.1482E+02
     -0.121  0.7717E+01  0.1569E+02
     -0.007  0.3185E+01  0.1606E+02
      0.106 -0.7708E-01  0.1605E+02
      0.220 -0.3302E+00  0.1601E+02
      0.333 -0.7372E-01  0.1600E+02
      0.447 -0.7759E-02  0.1600E+02
      0.560 -0.2056E-01  0.1600E+02
      0.674 -0.1589E+00  0.1598E+02
      0.787 -0.4069E+00  0.1593E+02
      0.901  0.8302E+00  0.1603E+02
      1.014  0.5403E+01  0.1664E+02
      1.128  0.8042E+01  0.1755E+02
      1.241  0.4181E+01  0.1803E+02
      1.355  0.2463E+00  0.1806E+02
      1.469 -0.3804E+00  0.1801E+02
      1.582 -0.1066E+00  0.1800E+02
      1.696 -0.1116E-01  0.1800E+02
      1.809 -0.5398E-03  0.1800E+02
      1.923 -0.1284E-04  0.1800E+02
      2.036 -0.1542E-06  0.1800E+02
      2.150 -0.9473E-09  0.1800E+02
      2.263 -0.3000E-11  0.1800E+02
      2.377 -0.3912E-14  0.1800E+02
      2.490  0.0000E+00  0.1800E+02
      2.604  0.0000E+00  0.1800E+02
      2.717  0.0000E+00  0.1800E+02
      2.831  0.0000E+00  0.1800E+02
      2.944  0.0000E+00  0.1800E+02
      3.058  0.0000E+00  0.1800E+02
