    2    2    1    1
  0.5000000E+03  0.1000000E-08  0.1000000E-08  0.1000000E-08  0.5000000E-15
  1.000000000000000E-004
  CAR 
 unknown system                          
   10    1    9
 
  0.0000000E+00  0.0000000E+00  0.0000000E+00  0.1000000E+01
   1      -29.001183
   2      -13.960908
   3      -11.524698
   4      -11.524698
   5       -8.952381
   6       -2.120588
   7       -2.120588
   8       -0.212745
   9        1.057949
