       N       E                     dE             d eps       ncg     rms          rms(c)
DAV:   1     0.571972251827E+02    0.57197E+02   -0.23777E+03    26   0.442E+02
DAV:   2    -0.964232134153E+01   -0.66840E+02   -0.66768E+02    27   0.152E+02
DAV:   3    -0.154776455130E+02   -0.58353E+01   -0.58348E+01    35   0.526E+01
DAV:   4    -0.154889606478E+02   -0.11315E-01   -0.11315E-01    28   0.267E+00
DAV:   5    -0.154889732364E+02   -0.12589E-04   -0.12589E-04    28   0.903E-02    0.590E+00
DAV:   6    -0.149369177843E+02    0.55206E+00   -0.30251E+00    18   0.119E+01    0.316E+00
DAV:   7    -0.148210961679E+02    0.11582E+00   -0.57511E-01    27   0.470E+00    0.162E+00
DAV:   8    -0.147859469036E+02    0.35149E-01   -0.12694E-01    18   0.281E+00    0.334E-01
DAV:   9    -0.147856988767E+02    0.24803E-03   -0.60821E-03    20   0.620E-01    0.994E-02
DAV:  10    -0.147864814677E+02   -0.78259E-03   -0.10358E-03    18   0.237E-01    0.301E-02
DAV:  11    -0.147881956826E+02   -0.17142E-02   -0.51671E-04    18   0.127E-01    0.188E-02
DAV:  12    -0.147887981941E+02   -0.60251E-03   -0.83073E-05    20   0.537E-02    0.105E-02
DAV:  13    -0.147897872189E+02   -0.98902E-03   -0.13058E-04    18   0.570E-02    0.522E-03
DAV:  14    -0.147900449237E+02   -0.25770E-03   -0.21154E-05    19   0.232E-02    0.347E-03
DAV:  15    -0.147902092008E+02   -0.16428E-03   -0.11241E-05    20   0.179E-02    0.183E-03
DAV:  16    -0.147902471441E+02   -0.37943E-04   -0.15052E-06    20   0.786E-03
   1 F= -.14790247E+02 E0= -.14794112E+02  d E =0.115958E-01
