<?xml version="1.0" encoding="ISO-8859-1"?>
<modeling>
 <generator>
  <i name="program" type="string">vasp </i>
  <i name="version" type="string">5.2.12  </i>
  <i name="subversion" type="string">11Nov11 complex                                                      parallel </i>
  <i name="platform" type="string">LinuxIFC </i>
  <i name="date" type="string">2012 10 31 </i>
  <i name="time" type="string">02:15:33 </i>
 </generator>
 <incar>
  <i type="string" name="PREC">normal</i>
  <i name="ENCUT">    350.00000000</i>
 </incar>
 <kpoints>
  <generation param="Monkhorst-Pack">
   <v type="int" name="divisions">       1        1        1 </v>
   <v name="usershift">      0.00000000       0.00000000       0.00000000 </v>
   <v name="genvec1">      1.00000000       0.00000000       0.00000000 </v>
   <v name="genvec2">      0.00000000       1.00000000       0.00000000 </v>
   <v name="genvec3">      0.00000000       0.00000000       1.00000000 </v>
   <v name="shift">      0.00000000       0.00000000       0.00000000 </v>
  </generation>
  <varray name="kpointlist" >
   <v>       0.00000000       0.00000000       0.00000000 </v>
  </varray>
  <varray name="weights" >
   <v>       1.00000000 </v>
  </varray>
 </kpoints>
 <parameters>
  <separator name="general" >
   <i type="string" name="SYSTEM">unknown system</i>
   <i type="logical" name="LCOMPAT"> F  </i>
  </separator>
  <separator name="electronic" >
   <i type="string" name="PREC">normal</i>
   <i name="ENMAX">    350.00000000</i>
   <i name="ENAUG">    644.87300000</i>
   <i name="EDIFF">      0.00010000</i>
   <i type="int" name="IALGO">    38</i>
   <i type="int" name="IWAVPR">    10</i>
   <i type="int" name="NBANDS">     9</i>
   <i name="NELECT">     10.00000000</i>
   <i type="int" name="TURBO">     0</i>
   <i type="int" name="IRESTART">     0</i>
   <i type="int" name="NREBOOT">     0</i>
   <i type="int" name="NMIN">     0</i>
   <i name="EREF">      0.00000000</i>
   <separator name="electronic smearing" >
    <i type="int" name="ISMEAR">     1</i>
    <i name="SIGMA">      0.20000000</i>
    <i name="KSPACING">      0.50000000</i>
    <i type="logical" name="KGAMMA"> T  </i>
   </separator>
   <separator name="electronic projectors" >
    <i type="logical" name="LREAL"> F  </i>
    <v name="ROPT">      0.00000000      0.00000000</v>
    <i type="int" name="LMAXPAW">  -100</i>
    <i type="int" name="LMAXMIX">     2</i>
    <i type="logical" name="NLSPLINE"> F  </i>
   </separator>
   <separator name="electronic startup" >
    <i type="int" name="ISTART">     0</i>
    <i type="int" name="ICHARG">     2</i>
    <i type="int" name="INIWAV">     1</i>
   </separator>
   <separator name="electronic spin" >
    <i type="int" name="ISPIN">     1</i>
    <i type="logical" name="LNONCOLLINEAR"> F  </i>
    <v name="MAGMOM">      1.00000000      1.00000000</v>
    <i name="NUPDOWN">     -1.00000000</i>
    <i type="logical" name="LSORBIT"> F  </i>
    <v name="SAXIS">      0.00000000      0.00000000      1.00000000</v>
    <i type="logical" name="LSPIRAL"> F  </i>
    <v name="QSPIRAL">      0.00000000      0.00000000      0.00000000</v>
    <i type="logical" name="LZEROZ"> F  </i>
   </separator>
   <separator name="electronic exchange-correlation" >
    <i type="logical" name="LASPH"> F  </i>
    <i type="logical" name="LMETAGGA"> F  </i>
   </separator>
   <separator name="electronic convergence" >
    <i type="int" name="NELM">    60</i>
    <i type="int" name="NELMDL">    -5</i>
    <i type="int" name="NELMIN">     2</i>
    <i name="ENINI">    350.00000000</i>
    <separator name="electronic convergence detail" >
     <i type="logical" name="LDIAG"> T  </i>
     <i type="logical" name="LSUBROT"> T  </i>
     <i name="WEIMIN">      0.00000000</i>
     <i name="EBREAK">      0.00000278</i>
     <i name="DEPER">      0.30000000</i>
     <i type="int" name="NRMM">     4</i>
     <i name="TIME">      0.40000000</i>
    </separator>
   </separator>
   <separator name="electronic mixer" >
    <i name="AMIX">      0.40000000</i>
    <i name="BMIX">      1.00000000</i>
    <i name="AMIN">      0.10000000</i>
    <i name="AMIX_MAG">      1.60000000</i>
    <i name="BMIX_MAG">      1.00000000</i>
    <separator name="electronic mixer details" >
     <i type="int" name="IMIX">     4</i>
     <i type="int" name="MAXMIX">   -45</i>
     <i name="WC">    100.00000000</i>
     <i type="int" name="INIMIX">     1</i>
     <i type="int" name="MIXPRE">     1</i>
     <i type="int" name="MREMOVE">     5</i>
    </separator>
   </separator>
   <separator name="electronic dipolcorrection" >
    <i type="logical" name="LDIPOL"> F  </i>
    <i type="logical" name="LMONO"> F  </i>
    <i type="int" name="IDIPOL">     0</i>
    <i name="EPSILON">      1.00000000</i>
    <v name="DIPOL">   -100.00000000   -100.00000000   -100.00000000</v>
    <i name="EFIELD">      0.00000000</i>
   </separator>
  </separator>
  <separator name="grids" >
   <i type="int" name="NGX">    48</i>
   <i type="int" name="NGY">    48</i>
   <i type="int" name="NGZ">    48</i>
   <i type="int" name="NGXF">    96</i>
   <i type="int" name="NGYF">    96</i>
   <i type="int" name="NGZF">    96</i>
   <i type="logical" name="ADDGRID"> F  </i>
  </separator>
  <separator name="ionic" >
   <i type="int" name="NSW">     0</i>
   <i type="int" name="IBRION">    -1</i>
   <i type="int" name="ISIF">     2</i>
   <i name="PSTRESS">      0.00000000</i>
   <i name="EDIFFG">      0.00100000</i>
   <i type="int" name="NFREE">     0</i>
   <i name="POTIM">      0.50000000</i>
   <i name="SMASS">     -3.00000000</i>
   <i name="SCALEE">      1.00000000</i>
  </separator>
  <separator name="ionic md" >
   <i name="TEBEG">      0.00010000</i>
   <i name="TEEND">      0.00010000</i>
   <i type="int" name="NBLOCK">     1</i>
   <i type="int" name="KBLOCK">     1</i>
   <i type="int" name="NPACO">   256</i>
   <i name="APACO">     16.00000000</i>
  </separator>
  <separator name="symmetry" >
   <i type="int" name="ISYM">     2</i>
   <i name="SYMPREC">      0.00001000</i>
  </separator>
  <separator name="dos" >
   <i type="logical" name="LORBIT"> F  </i>
   <v name="RWIGS">     -1.00000000     -1.00000000</v>
   <i type="int" name="NEDOS">   301</i>
   <i name="EMIN">     10.00000000</i>
   <i name="EMAX">    -10.00000000</i>
   <i name="EFERMI">      0.00000000</i>
  </separator>
  <separator name="writing" >
   <i type="int" name="NWRITE">     2</i>
   <i type="logical" name="LWAVE"> T  </i>
   <i type="logical" name="LCHARG"> T  </i>
   <i type="logical" name="LPARD"> F  </i>
   <i type="logical" name="LVTOT"> F  </i>
   <i type="logical" name="LVHAR"> F  </i>
   <i type="logical" name="LELF"> F  </i>
   <i type="logical" name="LOPTICS"> F  </i>
   <v name="STM">      0.00000000      0.00000000      0.00000000      0.00000000      0.00000000      0.00000000      0.00000000</v>
  </separator>
  <separator name="performance" >
   <i type="int" name="NPAR">     1</i>
   <i type="int" name="NSIM">     4</i>
   <i type="int" name="NBLK">    -1</i>
   <i type="logical" name="LPLANE"> T  </i>
   <i type="logical" name="LSCALAPACK"> F  </i>
   <i type="logical" name="LSCAAWARE"> F  </i>
   <i type="logical" name="LSCALU"> F  </i>
   <i type="logical" name="LASYNC"> F  </i>
   <i type="logical" name="LORBITALREAL"> F  </i>
  </separator>
  <separator name="miscellaneous" >
   <i type="int" name="IDIOT">     3</i>
   <i type="logical" name="LMUSIC"> F  </i>
   <v name="POMASS">     12.01100000     16.00000000</v>
   <v name="DARWINR">      0.00000000      0.00000000</v>
   <v name="DARWINV">      1.00000000      1.00000000</v>
   <i type="logical" name="LCORR"> T  </i>
  </separator>
  <i type="logical" name="GGA_COMPAT"> T  </i>
  <i type="logical" name="LBERRY"> F  </i>
  <i type="int" name="ICORELEVEL">     0</i>
  <i type="logical" name="LDAU"> F  </i>
  <i type="int" name="I_CONSTRAINED_M">     0</i>
  <separator name="electronic exchange-correlation" >
   <i type="string" name="GGA">--</i>
   <i type="int" name="VOSKOWN">     0</i>
   <i type="logical" name="LHFCALC"> F  </i>
   <i type="string" name="PRECFOCK"></i>
   <i type="logical" name="LHFONE"> F  </i>
   <i type="logical" name="LRHFCALC"> F  </i>
   <i type="logical" name="LTHOMAS"> F  </i>
   <i type="logical" name="LMODELHF"> F  </i>
   <i name="ENCUT4O">     -1.00000000</i>
   <i type="int" name="EXXOEP">     0</i>
   <i type="int" name="FOURORBIT">     0</i>
   <i name="AEXX">      0.00000000</i>
   <i name="HFALPHA">      0.00000000</i>
   <i name="ALDAX">      1.00000000</i>
   <i name="AGGAX">      1.00000000</i>
   <i name="ALDAC">      1.00000000</i>
   <i name="AGGAC">      1.00000000</i>
   <i type="int" name="NKREDX">     1</i>
   <i type="int" name="NKREDY">     1</i>
   <i type="int" name="NKREDZ">     1</i>
   <i type="logical" name="SHIFTRED"> F  </i>
   <i type="logical" name="ODDONLY"> F  </i>
   <i type="logical" name="EVENONLY"> F  </i>
   <i type="int" name="LMAXFOCK">     0</i>
   <i type="int" name="NMAXFOCKAE">     0</i>
   <i type="logical" name="LFOCKAEDFT"> F  </i>
   <i name="HFSCREEN">      0.00000000</i>
   <i name="HFSCREENC">      0.00000000</i>
  </separator>
  <separator name="vdW DFT" >
   <i type="logical" name="LUSE_VDW"> F  </i>
   <i name="Zab_VDW">     -0.84910000</i>
   <i name="PARAM1">      0.12340000</i>
   <i name="PARAM2">      1.00000000</i>
   <i name="PARAM3">      0.00000000</i>
  </separator>
  <separator name="model GW" >
   <i type="int" name="MODEL_GW">     0</i>
   <i name="MODEL_EPS0">    300.00000000</i>
   <i name="MODEL_ALPHA">      1.00000000</i>
  </separator>
  <separator name="linear response parameters" >
   <i type="logical" name="LEPSILON"> F  </i>
   <i type="logical" name="LRPA"> F  </i>
   <i type="logical" name="LNABLA"> F  </i>
   <i type="logical" name="LVEL"> F  </i>
   <i type="int" name="KINTER">     0</i>
   <i name="CSHIFT">      0.10000000</i>
   <i name="OMEGAMAX">     -1.00000000</i>
  </separator>
  <separator name="orbital magnetization" >
   <i type="logical" name="NUCIND"> F  </i>
   <v name="MAGPOS">      0.00000000      0.00000000      0.00000000</v>
   <i type="logical" name="LNICSALL"> T  </i>
   <i type="logical" name="ORBITALMAG"> F  </i>
   <i type="logical" name="LMAGBLOCH"> F  </i>
   <i type="logical" name="LCHIMAG"> F  </i>
   <i type="logical" name="LGAUGE"> T  </i>
   <i type="int" name="MAGATOM">     0</i>
   <v name="MAGDIPOL">      0.00000000      0.00000000      0.00000000</v>
   <v name="AVECCONST">      0.00000000      0.00000000      0.00000000</v>
  </separator>
  <separator name="response functions" >
   <i type="logical" name="LADDER"> F  </i>
   <i type="logical" name="LHARTREE"> T  </i>
   <i type="int" name="IBSE">     0</i>
   <i type="logical" name="LTCTE"> F  </i>
   <i type="logical" name="LTETE"> F  </i>
   <i type="logical" name="LFXCEPS"> F  </i>
   <i type="logical" name="L2ORDER"> F  </i>
   <i type="logical" name="LUSEW"> F  </i>
   <i name="ENCUTGW">     -2.00000000</i>
   <i name="ENCUTGWSOFT">     -2.00000000</i>
   <i name="ENCUTLF">     -1.00000000</i>
   <i type="int" name="LMAXMP2">    -1</i>
   <i name="SCISSOR">      0.00000000</i>
   <i type="int" name="NOMEGA">     0</i>
   <i type="int" name="NOMEGAR">     0</i>
   <i type="int" name="NBANDSGW">    -1</i>
   <i type="int" name="NBANDSO">    -1</i>
   <i type="int" name="NBANDSV">    -1</i>
   <i name="OPTEMAX">      0.00000000</i>
   <i type="int" name="NELM">     1</i>
   <i type="int" name="DIM">     3</i>
   <i type="int" name="ANTIRES">     0</i>
   <i name="OMEGAMAX">    -30.00000000</i>
   <i name="OMEGATL">   -200.00000000</i>
   <i type="int" name="OMEGAGRID">     0</i>
   <i name="CSHIFT">     -0.10000000</i>
   <i type="logical" name="SELFENERGY"> F  </i>
   <i type="logical" name="LSPECTRAL"> F  </i>
   <i type="logical" name="ODDONLYGW"> F  </i>
   <i type="logical" name="EVENONLYGW"> F  </i>
   <i type="int" name="NKREDLFX">     1</i>
   <i type="int" name="NKREDLFY">     1</i>
   <i type="int" name="NKREDLFZ">     1</i>
   <i type="int" name="MAXMEM">  1800</i>
   <i type="int" name="TELESCOPE">     0</i>
  </separator>
 </parameters>
 <atominfo>
  <atoms>       2 </atoms>
  <types>       2 </types>
  <array name="atoms" >
   <dimension dim="1">ion</dimension>
   <field type="string">element</field>
   <field type="int">atomtype</field>
   <set>
    <rc><c>C </c><c>   1</c></rc>
    <rc><c>O </c><c>   2</c></rc>
   </set>
  </array>
  <array name="atomtypes" >
   <dimension dim="1">type</dimension>
   <field type="int">atomspertype</field>
   <field type="string">element</field>
   <field>mass</field>
   <field>valence</field>
   <field type="string">pseudopotential</field>
   <set>
    <rc><c>   1</c><c>C </c><c>     12.01100000</c><c>      4.00000000</c><c> PAW_PBE C 08Apr2002                    </c></rc>
    <rc><c>   1</c><c>O </c><c>     16.00000000</c><c>      6.00000000</c><c> PAW_PBE O 08Apr2002                    </c></rc>
   </set>
  </array>
 </atominfo>
 <structure name="initialpos" >
  <crystal>
   <varray name="basis" >
    <v>      10.00000000       0.00000000       0.00000000 </v>
    <v>       0.00000000      10.00000000       0.00000000 </v>
    <v>       0.00000000       0.00000000      10.00000000 </v>
   </varray>
   <i name="volume">   1000.00000000 </i>
   <varray name="rec_basis" >
    <v>       0.10000000       0.00000000       0.00000000 </v>
    <v>       0.00000000       0.10000000       0.00000000 </v>
    <v>       0.00000000       0.00000000       0.10000000 </v>
   </varray>
  </crystal>
  <varray name="positions" >
   <v>       0.44220000       0.50000000       0.50000000 </v>
   <v>       0.55780000       0.50000000       0.50000000 </v>
  </varray>
 </structure>
 <calculation>
  <scstep>
   <time name="dav">    0.77    0.77</time>
   <time name="total">    2.12    2.13</time>
   <energy>
    <i name="alphaZ">      0.43525486 </i>
    <i name="ewald">     95.66160770 </i>
    <i name="hartreedc">   -558.59980774 </i>
    <i name="XCdc">     39.78905709 </i>
    <i name="pawpsdc">    283.82984571 </i>
    <i name="pawaedc">   -286.83001101 </i>
    <i name="eentropy">      0.01159581 </i>
    <i name="bandstr">    -96.17154771 </i>
    <i name="atom">    579.07123046 </i>
    <i name="e_fr_energy">     57.19722518 </i>
    <i name="e_wo_entrp">     57.18562937 </i>
    <i name="e_0_energy">     57.19335991 </i>
   </energy>
  </scstep>
  <scstep>
   <time name="dav">    0.77    0.78</time>
   <time name="total">    0.77    0.83</time>
   <energy>
    <i name="e_fr_energy">     -9.64232134 </i>
    <i name="e_wo_entrp">     -9.65391715 </i>
    <i name="e_0_energy">     -9.64618661 </i>
   </energy>
  </scstep>
  <scstep>
   <time name="dav">    0.96    0.96</time>
   <time name="total">    0.96    0.98</time>
   <energy>
    <i name="e_fr_energy">    -15.47764551 </i>
    <i name="e_wo_entrp">    -15.48924132 </i>
    <i name="e_0_energy">    -15.48151078 </i>
   </energy>
  </scstep>
  <scstep>
   <time name="dav">    0.79    0.79</time>
   <time name="total">    0.79    0.81</time>
   <energy>
    <i name="e_fr_energy">    -15.48896065 </i>
    <i name="e_wo_entrp">    -15.50055646 </i>
    <i name="e_0_energy">    -15.49282592 </i>
   </energy>
  </scstep>
  <scstep>
   <time name="dav">    0.79    0.79</time>
   <time name="total">    1.01    1.11</time>
   <energy>
    <i name="e_fr_energy">    -15.48897324 </i>
    <i name="e_wo_entrp">    -15.50056905 </i>
    <i name="e_0_energy">    -15.49283851 </i>
   </energy>
  </scstep>
  <scstep>
   <time name="dav">    0.58    0.58</time>
   <time name="total">    2.12    2.13</time>
   <energy>
    <i name="e_fr_energy">    -14.93691778 </i>
    <i name="e_wo_entrp">    -14.94851360 </i>
    <i name="e_0_energy">    -14.94078305 </i>
   </energy>
  </scstep>
  <scstep>
   <time name="dav">    0.78    0.78</time>
   <time name="total">    2.33    2.35</time>
   <energy>
    <i name="e_fr_energy">    -14.82109617 </i>
    <i name="e_wo_entrp">    -14.83269198 </i>
    <i name="e_0_energy">    -14.82496144 </i>
   </energy>
  </scstep>
  <scstep>
   <time name="dav">    0.58    0.58</time>
   <time name="total">    2.12    2.20</time>
   <energy>
    <i name="e_fr_energy">    -14.78594690 </i>
    <i name="e_wo_entrp">    -14.79754271 </i>
    <i name="e_0_energy">    -14.78981217 </i>
   </energy>
  </scstep>
  <scstep>
   <time name="dav">    0.62    0.62</time>
   <time name="total">    2.14    2.16</time>
   <energy>
    <i name="e_fr_energy">    -14.78569888 </i>
    <i name="e_wo_entrp">    -14.79729469 </i>
    <i name="e_0_energy">    -14.78956415 </i>
   </energy>
  </scstep>
  <scstep>
   <time name="dav">    0.61    0.61</time>
   <time name="total">    2.18    2.32</time>
   <energy>
    <i name="e_fr_energy">    -14.78648147 </i>
    <i name="e_wo_entrp">    -14.79807728 </i>
    <i name="e_0_energy">    -14.79034674 </i>
   </energy>
  </scstep>
  <scstep>
   <time name="dav">    0.58    0.58</time>
   <time name="total">    2.10    2.11</time>
   <energy>
    <i name="e_fr_energy">    -14.78819568 </i>
    <i name="e_wo_entrp">    -14.79979149 </i>
    <i name="e_0_energy">    -14.79206095 </i>
   </energy>
  </scstep>
  <scstep>
   <time name="dav">    0.62    0.62</time>
   <time name="total">    2.13    2.16</time>
   <energy>
    <i name="e_fr_energy">    -14.78879819 </i>
    <i name="e_wo_entrp">    -14.80039400 </i>
    <i name="e_0_energy">    -14.79266346 </i>
   </energy>
  </scstep>
  <scstep>
   <time name="dav">    0.58    0.58</time>
   <time name="total">    2.05    2.06</time>
   <energy>
    <i name="e_fr_energy">    -14.78978722 </i>
    <i name="e_wo_entrp">    -14.80138303 </i>
    <i name="e_0_energy">    -14.79365249 </i>
   </energy>
  </scstep>
  <scstep>
   <time name="dav">    0.60    0.60</time>
   <time name="total">    2.06    2.07</time>
   <energy>
    <i name="e_fr_energy">    -14.79004492 </i>
    <i name="e_wo_entrp">    -14.80164073 </i>
    <i name="e_0_energy">    -14.79391019 </i>
   </energy>
  </scstep>
  <scstep>
   <time name="dav">    0.62    0.62</time>
   <time name="total">    2.08    2.15</time>
   <energy>
    <i name="e_fr_energy">    -14.79020920 </i>
    <i name="e_wo_entrp">    -14.80180501 </i>
    <i name="e_0_energy">    -14.79407447 </i>
   </energy>
  </scstep>
  <scstep>
   <time name="dav">    0.62    0.62</time>
   <time name="total">    1.87    1.89</time>
   <energy>
    <i name="alphaZ">      0.43525486 </i>
    <i name="ewald">     95.66160770 </i>
    <i name="hartreedc">   -578.00309044 </i>
    <i name="XCdc">     40.93491443 </i>
    <i name="pawpsdc">    377.59050780 </i>
    <i name="pawaedc">   -380.56453012 </i>
    <i name="eentropy">      0.01159581 </i>
    <i name="bandstr">   -149.92773765 </i>
    <i name="atom">    579.07123046 </i>
    <i name="e_fr_energy">    -14.79024714 </i>
    <i name="e_wo_entrp">    -14.80184295 </i>
    <i name="e_0_energy">    -14.79411241 </i>
   </energy>
  </scstep>
  <parameters_embedded>
   <separator name="dft+d2" >
    <i type="logical" name="LVDW"> F  </i>
   </separator>
  </parameters_embedded>
  <structure>
   <crystal>
    <varray name="basis" >
     <v>      10.00000000       0.00000000       0.00000000 </v>
     <v>       0.00000000      10.00000000       0.00000000 </v>
     <v>       0.00000000       0.00000000      10.00000000 </v>
    </varray>
    <i name="volume">   1000.00000000 </i>
    <varray name="rec_basis" >
     <v>       0.10000000       0.00000000       0.00000000 </v>
     <v>       0.00000000       0.10000000       0.00000000 </v>
     <v>       0.00000000       0.00000000       0.10000000 </v>
    </varray>
   </crystal>
   <varray name="positions" >
    <v>       0.44220000       0.50000000       0.50000000 </v>
    <v>       0.55780000       0.50000000       0.50000000 </v>
   </varray>
  </structure>
  <varray name="forces" >
   <v>       1.32100800       0.00000000       0.00000000 </v>
   <v>      -1.32100800       0.00000000       0.00000000 </v>
  </varray>
  <varray name="stress" >
   <v>      -6.47057242       0.00000000       0.00000000 </v>
   <v>       0.00000000      -3.73838932       0.00000000 </v>
   <v>       0.00000000       0.00000000      -3.73838932 </v>
  </varray>
  <energy>
   <i name="e_fr_energy">    -14.79024714 </i>
   <i name="e_wo_entrp">    -14.79411241 </i>
   <i name="e_0_energy">      0.01159581 </i>
  </energy>
  <time name="totalsc">   32.97   34.21</time>
  <eigenvalues>
   <array>
    <dimension dim="1">band</dimension>
    <dimension dim="2">kpoint</dimension>
    <dimension dim="3">spin</dimension>
    <field>eigene</field>
    <field>occ</field>
    <set>
     <set comment="spin 1">
      <set comment="kpoint 1">
       <r>  -29.0012    1.0000 </r>
       <r>  -13.9609    1.0000 </r>
       <r>  -11.5247    1.0000 </r>
       <r>  -11.5247    1.0000 </r>
       <r>   -8.9524    1.0000 </r>
       <r>   -2.1206    0.0000 </r>
       <r>   -2.1206    0.0000 </r>
       <r>   -0.2127    0.0000 </r>
       <r>    1.0579    0.0000 </r>
      </set>
     </set>
    </set>
   </array>
  </eigenvalues>
  <separator name="orbital magnetization" >
   <v name="MAGDIPOLOUT">      0.00000000      0.00000000      0.00000000</v>
  </separator>
  <dos>
   <i name="efermi">     -8.78400446 </i>
   <total>
    <array>
     <dimension dim="1">gridpoints</dimension>
     <dimension dim="2">spin</dimension>
     <field>energy</field>
     <field>total</field>
     <field>integrated</field>
     <set>
      <set comment="spin 1">
       <r>   -31.0012     0.0000     0.0000 </r>
       <r>   -30.8877     0.0000     0.0000 </r>
       <r>   -30.7741     0.0000     0.0000 </r>
       <r>   -30.6606     0.0000     0.0000 </r>
       <r>   -30.5471     0.0000     0.0000 </r>
       <r>   -30.4335     0.0000     0.0000 </r>
       <r>   -30.3200     0.0000     0.0000 </r>
       <r>   -30.2065     0.0000     0.0000 </r>
       <r>   -30.0929     0.0000     0.0000 </r>
       <r>   -29.9794     0.0000     0.0000 </r>
       <r>   -29.8659     0.0000     0.0000 </r>
       <r>   -29.7523     0.0000     0.0000 </r>
       <r>   -29.6388    -0.0005    -0.0001 </r>
       <r>   -29.5253    -0.0112    -0.0013 </r>
       <r>   -29.4118    -0.1066    -0.0134 </r>
       <r>   -29.2982    -0.3804    -0.0566 </r>
       <r>   -29.1847     0.2463    -0.0286 </r>
       <r>   -29.0712     4.1811     0.4460 </r>
       <r>   -28.9576     8.0418     1.3590 </r>
       <r>   -28.8441     5.4030     1.9724 </r>
       <r>   -28.7306     0.8302     2.0667 </r>
       <r>   -28.6170    -0.4069     2.0205 </r>
       <r>   -28.5035    -0.1589     2.0024 </r>
       <r>   -28.3900    -0.0203     2.0001 </r>
       <r>   -28.2765    -0.0012     2.0000 </r>
       <r>   -28.1629     0.0000     2.0000 </r>
       <r>   -28.0494     0.0000     2.0000 </r>
       <r>   -27.9359     0.0000     2.0000 </r>
       <r>   -27.8223     0.0000     2.0000 </r>
       <r>   -27.7088     0.0000     2.0000 </r>
       <r>   -27.5953     0.0000     2.0000 </r>
       <r>   -27.4817     0.0000     2.0000 </r>
       <r>   -27.3682     0.0000     2.0000 </r>
       <r>   -27.2547     0.0000     2.0000 </r>
       <r>   -27.1411     0.0000     2.0000 </r>
       <r>   -27.0276     0.0000     2.0000 </r>
       <r>   -26.9141     0.0000     2.0000 </r>
       <r>   -26.8006     0.0000     2.0000 </r>
       <r>   -26.6870     0.0000     2.0000 </r>
       <r>   -26.5735     0.0000     2.0000 </r>
       <r>   -26.4600     0.0000     2.0000 </r>
       <r>   -26.3464     0.0000     2.0000 </r>
       <r>   -26.2329     0.0000     2.0000 </r>
       <r>   -26.1194     0.0000     2.0000 </r>
       <r>   -26.0058     0.0000     2.0000 </r>
       <r>   -25.8923     0.0000     2.0000 </r>
       <r>   -25.7788     0.0000     2.0000 </r>
       <r>   -25.6653     0.0000     2.0000 </r>
       <r>   -25.5517     0.0000     2.0000 </r>
       <r>   -25.4382     0.0000     2.0000 </r>
       <r>   -25.3247     0.0000     2.0000 </r>
       <r>   -25.2111     0.0000     2.0000 </r>
       <r>   -25.0976     0.0000     2.0000 </r>
       <r>   -24.9841     0.0000     2.0000 </r>
       <r>   -24.8705     0.0000     2.0000 </r>
       <r>   -24.7570     0.0000     2.0000 </r>
       <r>   -24.6435     0.0000     2.0000 </r>
       <r>   -24.5299     0.0000     2.0000 </r>
       <r>   -24.4164     0.0000     2.0000 </r>
       <r>   -24.3029     0.0000     2.0000 </r>
       <r>   -24.1894     0.0000     2.0000 </r>
       <r>   -24.0758     0.0000     2.0000 </r>
       <r>   -23.9623     0.0000     2.0000 </r>
       <r>   -23.8488     0.0000     2.0000 </r>
       <r>   -23.7352     0.0000     2.0000 </r>
       <r>   -23.6217     0.0000     2.0000 </r>
       <r>   -23.5082     0.0000     2.0000 </r>
       <r>   -23.3946     0.0000     2.0000 </r>
       <r>   -23.2811     0.0000     2.0000 </r>
       <r>   -23.1676     0.0000     2.0000 </r>
       <r>   -23.0541     0.0000     2.0000 </r>
       <r>   -22.9405     0.0000     2.0000 </r>
       <r>   -22.8270     0.0000     2.0000 </r>
       <r>   -22.7135     0.0000     2.0000 </r>
       <r>   -22.5999     0.0000     2.0000 </r>
       <r>   -22.4864     0.0000     2.0000 </r>
       <r>   -22.3729     0.0000     2.0000 </r>
       <r>   -22.2593     0.0000     2.0000 </r>
       <r>   -22.1458     0.0000     2.0000 </r>
       <r>   -22.0323     0.0000     2.0000 </r>
       <r>   -21.9187     0.0000     2.0000 </r>
       <r>   -21.8052     0.0000     2.0000 </r>
       <r>   -21.6917     0.0000     2.0000 </r>
       <r>   -21.5782     0.0000     2.0000 </r>
       <r>   -21.4646     0.0000     2.0000 </r>
       <r>   -21.3511     0.0000     2.0000 </r>
       <r>   -21.2376     0.0000     2.0000 </r>
       <r>   -21.1240     0.0000     2.0000 </r>
       <r>   -21.0105     0.0000     2.0000 </r>
       <r>   -20.8970     0.0000     2.0000 </r>
       <r>   -20.7834     0.0000     2.0000 </r>
       <r>   -20.6699     0.0000     2.0000 </r>
       <r>   -20.5564     0.0000     2.0000 </r>
       <r>   -20.4429     0.0000     2.0000 </r>
       <r>   -20.3293     0.0000     2.0000 </r>
       <r>   -20.2158     0.0000     2.0000 </r>
       <r>   -20.1023     0.0000     2.0000 </r>
       <r>   -19.9887     0.0000     2.0000 </r>
       <r>   -19.8752     0.0000     2.0000 </r>
       <r>   -19.7617     0.0000     2.0000 </r>
       <r>   -19.6481     0.0000     2.0000 </r>
       <r>   -19.5346     0.0000     2.0000 </r>
       <r>   -19.4211     0.0000     2.0000 </r>
       <r>   -19.3075     0.0000     2.0000 </r>
       <r>   -19.1940     0.0000     2.0000 </r>
       <r>   -19.0805     0.0000     2.0000 </r>
       <r>   -18.9670     0.0000     2.0000 </r>
       <r>   -18.8534     0.0000     2.0000 </r>
       <r>   -18.7399     0.0000     2.0000 </r>
       <r>   -18.6264     0.0000     2.0000 </r>
       <r>   -18.5128     0.0000     2.0000 </r>
       <r>   -18.3993     0.0000     2.0000 </r>
       <r>   -18.2858     0.0000     2.0000 </r>
       <r>   -18.1722     0.0000     2.0000 </r>
       <r>   -18.0587     0.0000     2.0000 </r>
       <r>   -17.9452     0.0000     2.0000 </r>
       <r>   -17.8317     0.0000     2.0000 </r>
       <r>   -17.7181     0.0000     2.0000 </r>
       <r>   -17.6046     0.0000     2.0000 </r>
       <r>   -17.4911     0.0000     2.0000 </r>
       <r>   -17.3775     0.0000     2.0000 </r>
       <r>   -17.2640     0.0000     2.0000 </r>
       <r>   -17.1505     0.0000     2.0000 </r>
       <r>   -17.0369     0.0000     2.0000 </r>
       <r>   -16.9234     0.0000     2.0000 </r>
       <r>   -16.8099     0.0000     2.0000 </r>
       <r>   -16.6963     0.0000     2.0000 </r>
       <r>   -16.5828     0.0000     2.0000 </r>
       <r>   -16.4693     0.0000     2.0000 </r>
       <r>   -16.3558     0.0000     2.0000 </r>
       <r>   -16.2422     0.0000     2.0000 </r>
       <r>   -16.1287     0.0000     2.0000 </r>
       <r>   -16.0152     0.0000     2.0000 </r>
       <r>   -15.9016     0.0000     2.0000 </r>
       <r>   -15.7881     0.0000     2.0000 </r>
       <r>   -15.6746     0.0000     2.0000 </r>
       <r>   -15.5610     0.0000     2.0000 </r>
       <r>   -15.4475     0.0000     2.0000 </r>
       <r>   -15.3340     0.0000     2.0000 </r>
       <r>   -15.2205     0.0000     2.0000 </r>
       <r>   -15.1069     0.0000     2.0000 </r>
       <r>   -14.9934     0.0000     2.0000 </r>
       <r>   -14.8799     0.0000     2.0000 </r>
       <r>   -14.7663     0.0000     2.0000 </r>
       <r>   -14.6528    -0.0001     2.0000 </r>
       <r>   -14.5393    -0.0029     1.9997 </r>
       <r>   -14.4257    -0.0402     1.9951 </r>
       <r>   -14.3122    -0.2415     1.9677 </r>
       <r>   -14.1987    -0.3363     1.9295 </r>
       <r>   -14.0851     1.8664     2.1414 </r>
       <r>   -13.9716     6.7657     2.9095 </r>
       <r>   -13.8581     7.4516     3.7555 </r>
       <r>   -13.7446     2.7115     4.0633 </r>
       <r>   -13.6310    -0.1914     4.0416 </r>
       <r>   -13.5175    -0.3007     4.0075 </r>
       <r>   -13.4040    -0.0605     4.0006 </r>
       <r>   -13.2904    -0.0050     4.0000 </r>
       <r>   -13.1769    -0.0002     4.0000 </r>
       <r>   -13.0634     0.0000     4.0000 </r>
       <r>   -12.9498     0.0000     4.0000 </r>
       <r>   -12.8363     0.0000     4.0000 </r>
       <r>   -12.7228     0.0000     4.0000 </r>
       <r>   -12.6093     0.0000     4.0000 </r>
       <r>   -12.4957     0.0000     4.0000 </r>
       <r>   -12.3822     0.0000     4.0000 </r>
       <r>   -12.2687     0.0000     4.0000 </r>
       <r>   -12.1551    -0.0013     3.9998 </r>
       <r>   -12.0416    -0.0264     3.9969 </r>
       <r>   -11.9281    -0.2389     3.9697 </r>
       <r>   -11.8145    -0.7849     3.8806 </r>
       <r>   -11.7010     0.7672     3.9677 </r>
       <r>   -11.5875     9.0330     4.9932 </r>
       <r>   -11.4739    16.1704     6.8291 </r>
       <r>   -11.3604    10.1489     7.9813 </r>
       <r>   -11.2469     1.2980     8.1287 </r>
       <r>   -11.1334    -0.8101     8.0367 </r>
       <r>   -11.0198    -0.2866     8.0042 </r>
       <r>   -10.9063    -0.0346     8.0002 </r>
       <r>   -10.7928    -0.0019     8.0000 </r>
       <r>   -10.6792    -0.0001     8.0000 </r>
       <r>   -10.5657     0.0000     8.0000 </r>
       <r>   -10.4522     0.0000     8.0000 </r>
       <r>   -10.3386     0.0000     8.0000 </r>
       <r>   -10.2251     0.0000     8.0000 </r>
       <r>   -10.1116     0.0000     8.0000 </r>
       <r>    -9.9981     0.0000     8.0000 </r>
       <r>    -9.8845     0.0000     8.0000 </r>
       <r>    -9.7710     0.0000     8.0000 </r>
       <r>    -9.6575    -0.0001     8.0000 </r>
       <r>    -9.5439    -0.0020     7.9998 </r>
       <r>    -9.4304    -0.0308     7.9963 </r>
       <r>    -9.3169    -0.2064     7.9728 </r>
       <r>    -9.2033    -0.3830     7.9294 </r>
       <r>    -9.0898     1.4097     8.0894 </r>
       <r>    -8.9763     6.2535     8.7994 </r>
       <r>    -8.8627     7.7624     9.6806 </r>
       <r>    -8.7492     3.2833    10.0534 </r>
       <r>    -8.6357    -0.0504    10.0477 </r>
       <r>    -8.5222    -0.3359    10.0095 </r>
       <r>    -8.4086    -0.0766    10.0008 </r>
       <r>    -8.2951    -0.0070    10.0000 </r>
       <r>    -8.1816    -0.0003    10.0000 </r>
       <r>    -8.0680     0.0000    10.0000 </r>
       <r>    -7.9545     0.0000    10.0000 </r>
       <r>    -7.8410     0.0000    10.0000 </r>
       <r>    -7.7274     0.0000    10.0000 </r>
       <r>    -7.6139     0.0000    10.0000 </r>
       <r>    -7.5004     0.0000    10.0000 </r>
       <r>    -7.3869     0.0000    10.0000 </r>
       <r>    -7.2733     0.0000    10.0000 </r>
       <r>    -7.1598     0.0000    10.0000 </r>
       <r>    -7.0463     0.0000    10.0000 </r>
       <r>    -6.9327     0.0000    10.0000 </r>
       <r>    -6.8192     0.0000    10.0000 </r>
       <r>    -6.7057     0.0000    10.0000 </r>
       <r>    -6.5921     0.0000    10.0000 </r>
       <r>    -6.4786     0.0000    10.0000 </r>
       <r>    -6.3651     0.0000    10.0000 </r>
       <r>    -6.2515     0.0000    10.0000 </r>
       <r>    -6.1380     0.0000    10.0000 </r>
       <r>    -6.0245     0.0000    10.0000 </r>
       <r>    -5.9110     0.0000    10.0000 </r>
       <r>    -5.7974     0.0000    10.0000 </r>
       <r>    -5.6839     0.0000    10.0000 </r>
       <r>    -5.5704     0.0000    10.0000 </r>
       <r>    -5.4568     0.0000    10.0000 </r>
       <r>    -5.3433     0.0000    10.0000 </r>
       <r>    -5.2298     0.0000    10.0000 </r>
       <r>    -5.1162     0.0000    10.0000 </r>
       <r>    -5.0027     0.0000    10.0000 </r>
       <r>    -4.8892     0.0000    10.0000 </r>
       <r>    -4.7757     0.0000    10.0000 </r>
       <r>    -4.6621     0.0000    10.0000 </r>
       <r>    -4.5486     0.0000    10.0000 </r>
       <r>    -4.4351     0.0000    10.0000 </r>
       <r>    -4.3215     0.0000    10.0000 </r>
       <r>    -4.2080     0.0000    10.0000 </r>
       <r>    -4.0945     0.0000    10.0000 </r>
       <r>    -3.9809     0.0000    10.0000 </r>
       <r>    -3.8674     0.0000    10.0000 </r>
       <r>    -3.7539     0.0000    10.0000 </r>
       <r>    -3.6403     0.0000    10.0000 </r>
       <r>    -3.5268     0.0000    10.0000 </r>
       <r>    -3.4133     0.0000    10.0000 </r>
       <r>    -3.2998     0.0000    10.0000 </r>
       <r>    -3.1862     0.0000    10.0000 </r>
       <r>    -3.0727     0.0000    10.0000 </r>
       <r>    -2.9592     0.0000    10.0000 </r>
       <r>    -2.8456    -0.0001    10.0000 </r>
       <r>    -2.7321    -0.0023     9.9997 </r>
       <r>    -2.6186    -0.0403     9.9952 </r>
       <r>    -2.5050    -0.3165     9.9592 </r>
       <r>    -2.3915    -0.8139     9.8668 </r>
       <r>    -2.2780     1.6438    10.0534 </r>
       <r>    -2.1645    10.7775    11.2770 </r>
       <r>    -2.0509    16.0887    13.1036 </r>
       <r>    -1.9374     8.3915    14.0563 </r>
       <r>    -1.8239     0.5040    14.1135 </r>
       <r>    -1.7103    -0.7619    14.0270 </r>
       <r>    -1.5968    -0.2142    14.0027 </r>
       <r>    -1.4833    -0.0225    14.0001 </r>
       <r>    -1.3697    -0.0011    14.0000 </r>
       <r>    -1.2562     0.0000    14.0000 </r>
       <r>    -1.1427     0.0000    14.0000 </r>
       <r>    -1.0291     0.0000    14.0000 </r>
       <r>    -0.9156    -0.0001    14.0000 </r>
       <r>    -0.8021    -0.0021    13.9997 </r>
       <r>    -0.6886    -0.0322    13.9961 </r>
       <r>    -0.5750    -0.2122    13.9720 </r>
       <r>    -0.4615    -0.3771    13.9292 </r>
       <r>    -0.3480     1.4825    14.0975 </r>
       <r>    -0.2344     6.3432    14.8176 </r>
       <r>    -0.1209     7.7170    15.6938 </r>
       <r>    -0.0074     3.1853    16.0554 </r>
       <r>     0.1062    -0.0771    16.0466 </r>
       <r>     0.2197    -0.3302    16.0091 </r>
       <r>     0.3332    -0.0737    16.0008 </r>
       <r>     0.4467    -0.0078    15.9999 </r>
       <r>     0.5603    -0.0206    15.9976 </r>
       <r>     0.6738    -0.1589    15.9795 </r>
       <r>     0.7873    -0.4069    15.9333 </r>
       <r>     0.9009     0.8302    16.0276 </r>
       <r>     1.0144     5.4030    16.6410 </r>
       <r>     1.1279     8.0418    17.5540 </r>
       <r>     1.2415     4.1811    18.0286 </r>
       <r>     1.3550     0.2463    18.0566 </r>
       <r>     1.4685    -0.3804    18.0134 </r>
       <r>     1.5821    -0.1066    18.0013 </r>
       <r>     1.6956    -0.0112    18.0001 </r>
       <r>     1.8091    -0.0005    18.0000 </r>
       <r>     1.9226     0.0000    18.0000 </r>
       <r>     2.0362     0.0000    18.0000 </r>
       <r>     2.1497     0.0000    18.0000 </r>
       <r>     2.2632     0.0000    18.0000 </r>
       <r>     2.3768     0.0000    18.0000 </r>
       <r>     2.4903     0.0000    18.0000 </r>
       <r>     2.6038     0.0000    18.0000 </r>
       <r>     2.7174     0.0000    18.0000 </r>
       <r>     2.8309     0.0000    18.0000 </r>
       <r>     2.9444     0.0000    18.0000 </r>
       <r>     3.0579     0.0000    18.0000 </r>
      </set>
     </set>
    </array>
   </total>
  </dos>
 </calculation>
 <structure name="finalpos" >
  <crystal>
   <varray name="basis" >
    <v>      10.00000000       0.00000000       0.00000000 </v>
    <v>       0.00000000      10.00000000       0.00000000 </v>
    <v>       0.00000000       0.00000000      10.00000000 </v>
   </varray>
   <i name="volume">   1000.00000000 </i>
   <varray name="rec_basis" >
    <v>       0.10000000       0.00000000       0.00000000 </v>
    <v>       0.00000000       0.10000000       0.00000000 </v>
    <v>       0.00000000       0.00000000       0.10000000 </v>
   </varray>
  </crystal>
  <varray name="positions" >
   <v>       0.44220000       0.50000000       0.50000000 </v>
   <v>       0.55780000       0.50000000       0.50000000 </v>
  </varray>
 </structure>
</modeling>
