unknown system                          
           1
    10.000000    0.000000    0.000000
     0.000000   10.000000    0.000000
     0.000000    0.000000   10.000000
   C    O 
   1   1
Direct configuration=     1
   0.44220000  0.50000000  0.50000000
   0.55780000  0.50000000  0.50000000
