    5    5   50    1
  0.1024000E+03  0.8000000E-09  0.8000000E-09  0.8000000E-09  0.5000000E-15
  1.000000000000000E-004
  CAR 
 unknown system                          
   26    1   17
 
  0.0000000E+00  0.0000000E+00  0.0000000E+00  0.1000000E+01
   1      -22.514521
   2      -19.920060
   3      -19.911289
   4      -14.988647
   5      -11.363358
   6      -10.711313
   7      -10.699568
   8       -7.415322
   9       -7.408675
  10       -6.682336
  11       -6.674380
  12       -6.563999
  13       -6.183315
  14       -0.984009
  15        0.081793
  16        0.222368
  17        0.487840
