       N       E                     dE             d eps       ncg     rms          rms(c)
DAV:   1     0.233362757822E+03    0.23336E+03   -0.68726E+03    34   0.765E+02
DAV:   2     0.321778218035E+02   -0.20118E+03   -0.19589E+03    51   0.175E+02
DAV:   3    -0.180747126085E+02   -0.50253E+02   -0.50182E+02    35   0.115E+02
DAV:   4    -0.196804126245E+02   -0.16057E+01   -0.16033E+01    52   0.275E+01
DAV:   5    -0.197065653629E+02   -0.26153E-01   -0.26148E-01    52   0.317E+00    0.556E+00
DAV:   6    -0.192279853874E+02    0.47858E+00   -0.52568E-01    44   0.498E+00    0.303E+00
DAV:   7    -0.190815230886E+02    0.14646E+00   -0.39094E-01    52   0.428E+00    0.674E-01
DAV:   8    -0.190798194034E+02    0.17037E-02   -0.29903E-02    52   0.118E+00    0.245E-01
DAV:   9    -0.190808304520E+02   -0.10110E-02   -0.29074E-03    36   0.411E-01    0.750E-02
DAV:  10    -0.190818165074E+02   -0.98606E-03   -0.38873E-04    36   0.139E-01    0.309E-02
DAV:  11    -0.190830303042E+02   -0.12138E-02   -0.27357E-04    28   0.111E-01    0.197E-02
DAV:  12    -0.190835702403E+02   -0.53994E-03   -0.97341E-05    28   0.577E-02    0.101E-02
DAV:  13    -0.190839209918E+02   -0.35075E-03   -0.44567E-05    28   0.421E-02    0.463E-03
DAV:  14    -0.190840110907E+02   -0.90099E-04   -0.88107E-06    28   0.196E-02
   1 F= -.19084011E+02 E0= -.19087959E+02  d E =-.190840E+02
       N       E                     dE             d eps       ncg     rms          rms(c)
DAV:   1    -0.190810880988E+02    0.28329E-02   -0.65019E-01    34   0.552E+00    0.211E-01
DAV:   2    -0.190822441318E+02   -0.11560E-02   -0.17804E-02    52   0.101E+00    0.152E-01
DAV:   3    -0.190820026146E+02    0.24152E-03   -0.94602E-04    35   0.239E-01    0.649E-02
DAV:   4    -0.190819886430E+02    0.13972E-04   -0.19942E-04    35   0.108E-01
   2 F= -.19081989E+02 E0= -.19086135E+02  d E =0.202245E-02
       N       E                     dE             d eps       ncg     rms          rms(c)
DAV:   1    -0.190865238619E+02   -0.45212E-02   -0.34384E-01    34   0.383E+00    0.142E-01
DAV:   2    -0.190868062505E+02   -0.28239E-03   -0.44310E-03    43   0.448E-01    0.940E-02
DAV:   3    -0.190867280735E+02    0.78177E-04   -0.30046E-04    36   0.134E-01
   3 F= -.19086728E+02 E0= -.19090691E+02  d E =-.473943E-02
       N       E                     dE             d eps       ncg     rms          rms(c)
DAV:   1    -0.190868784199E+02   -0.72169E-04   -0.24037E-02    34   0.102E+00    0.281E-02
DAV:   2    -0.190869556984E+02   -0.77279E-04   -0.87618E-04    51   0.216E-01
   4 F= -.19086956E+02 E0= -.19090933E+02  d E =-.227625E-03
