<?xml version="1.0" encoding="ISO-8859-1"?>
<modeling>
 <generator>
  <i name="program" type="string">vasp </i>
  <i name="version" type="string">5.2.12  </i>
  <i name="subversion" type="string">11Nov11 complex                                                      parallel </i>
  <i name="platform" type="string">LinuxIFC </i>
  <i name="date" type="string">2012 11 03 </i>
  <i name="time" type="string">01:41:32 </i>
 </generator>
 <incar>
  <i type="string" name="PREC">normal</i>
  <i type="int" name="IBRION">     1</i>
  <i type="int" name="NSW">    50</i>
  <i name="ENCUT">    350.00000000</i>
 </incar>
 <kpoints>
  <generation param="Monkhorst-Pack">
   <v type="int" name="divisions">       1        1        1 </v>
   <v name="usershift">      0.00000000       0.00000000       0.00000000 </v>
   <v name="genvec1">      1.00000000       0.00000000       0.00000000 </v>
   <v name="genvec2">      0.00000000       1.00000000       0.00000000 </v>
   <v name="genvec3">      0.00000000       0.00000000       1.00000000 </v>
   <v name="shift">      0.00000000       0.00000000       0.00000000 </v>
  </generation>
  <varray name="kpointlist" >
   <v>       0.00000000       0.00000000       0.00000000 </v>
  </varray>
  <varray name="weights" >
   <v>       1.00000000 </v>
  </varray>
 </kpoints>
 <parameters>
  <separator name="general" >
   <i type="string" name="SYSTEM">unknown system</i>
   <i type="logical" name="LCOMPAT"> F  </i>
  </separator>
  <separator name="electronic" >
   <i type="string" name="PREC">normal</i>
   <i name="ENMAX">    350.00000000</i>
   <i name="ENAUG">    644.87300000</i>
   <i name="EDIFF">      0.00010000</i>
   <i type="int" name="IALGO">    38</i>
   <i type="int" name="IWAVPR">    11</i>
   <i type="int" name="NBANDS">    17</i>
   <i name="NELECT">     26.00000000</i>
   <i type="int" name="TURBO">     0</i>
   <i type="int" name="IRESTART">     0</i>
   <i type="int" name="NREBOOT">     0</i>
   <i type="int" name="NMIN">     0</i>
   <i name="EREF">      0.00000000</i>
   <separator name="electronic smearing" >
    <i type="int" name="ISMEAR">     1</i>
    <i name="SIGMA">      0.20000000</i>
    <i name="KSPACING">      0.50000000</i>
    <i type="logical" name="KGAMMA"> T  </i>
   </separator>
   <separator name="electronic projectors" >
    <i type="logical" name="LREAL"> F  </i>
    <v name="ROPT">      0.00000000      0.00000000      0.00000000</v>
    <i type="int" name="LMAXPAW">  -100</i>
    <i type="int" name="LMAXMIX">     2</i>
    <i type="logical" name="NLSPLINE"> F  </i>
   </separator>
   <separator name="electronic startup" >
    <i type="int" name="ISTART">     0</i>
    <i type="int" name="ICHARG">     2</i>
    <i type="int" name="INIWAV">     1</i>
   </separator>
   <separator name="electronic spin" >
    <i type="int" name="ISPIN">     1</i>
    <i type="logical" name="LNONCOLLINEAR"> F  </i>
    <v name="MAGMOM">      1.00000000      1.00000000      1.00000000      1.00000000      1.00000000</v>
    <i name="NUPDOWN">     -1.00000000</i>
    <i type="logical" name="LSORBIT"> F  </i>
    <v name="SAXIS">      0.00000000      0.00000000      1.00000000</v>
    <i type="logical" name="LSPIRAL"> F  </i>
    <v name="QSPIRAL">      0.00000000      0.00000000      0.00000000</v>
    <i type="logical" name="LZEROZ"> F  </i>
   </separator>
   <separator name="electronic exchange-correlation" >
    <i type="logical" name="LASPH"> F  </i>
    <i type="logical" name="LMETAGGA"> F  </i>
   </separator>
   <separator name="electronic convergence" >
    <i type="int" name="NELM">    60</i>
    <i type="int" name="NELMDL">    -5</i>
    <i type="int" name="NELMIN">     2</i>
    <i name="ENINI">    350.00000000</i>
    <separator name="electronic convergence detail" >
     <i type="logical" name="LDIAG"> T  </i>
     <i type="logical" name="LSUBROT"> T  </i>
     <i name="WEIMIN">      0.00100000</i>
     <i name="EBREAK">      0.00000147</i>
     <i name="DEPER">      0.30000000</i>
     <i type="int" name="NRMM">     4</i>
     <i name="TIME">      0.40000000</i>
    </separator>
   </separator>
   <separator name="electronic mixer" >
    <i name="AMIX">      0.40000000</i>
    <i name="BMIX">      1.00000000</i>
    <i name="AMIN">      0.10000000</i>
    <i name="AMIX_MAG">      1.60000000</i>
    <i name="BMIX_MAG">      1.00000000</i>
    <separator name="electronic mixer details" >
     <i type="int" name="IMIX">     4</i>
     <i type="int" name="MAXMIX">   -45</i>
     <i name="WC">    100.00000000</i>
     <i type="int" name="INIMIX">     1</i>
     <i type="int" name="MIXPRE">     1</i>
     <i type="int" name="MREMOVE">     5</i>
    </separator>
   </separator>
   <separator name="electronic dipolcorrection" >
    <i type="logical" name="LDIPOL"> F  </i>
    <i type="logical" name="LMONO"> F  </i>
    <i type="int" name="IDIPOL">     0</i>
    <i name="EPSILON">      1.00000000</i>
    <v name="DIPOL">   -100.00000000   -100.00000000   -100.00000000</v>
    <i name="EFIELD">      0.00000000</i>
   </separator>
  </separator>
  <separator name="grids" >
   <i type="int" name="NGX">    40</i>
   <i type="int" name="NGY">    40</i>
   <i type="int" name="NGZ">    40</i>
   <i type="int" name="NGXF">    80</i>
   <i type="int" name="NGYF">    80</i>
   <i type="int" name="NGZF">    80</i>
   <i type="logical" name="ADDGRID"> F  </i>
  </separator>
  <separator name="ionic" >
   <i type="int" name="NSW">    50</i>
   <i type="int" name="IBRION">     1</i>
   <i type="int" name="ISIF">     2</i>
   <i name="PSTRESS">      0.00000000</i>
   <i name="EDIFFG">      0.00100000</i>
   <i type="int" name="NFREE">     0</i>
   <i name="POTIM">      0.50000000</i>
   <i name="SMASS">     -3.00000000</i>
   <i name="SCALEE">      1.00000000</i>
  </separator>
  <separator name="ionic md" >
   <i name="TEBEG">      0.00010000</i>
   <i name="TEEND">      0.00010000</i>
   <i type="int" name="NBLOCK">     1</i>
   <i type="int" name="KBLOCK">    50</i>
   <i type="int" name="NPACO">   256</i>
   <i name="APACO">     16.00000000</i>
  </separator>
  <separator name="symmetry" >
   <i type="int" name="ISYM">     2</i>
   <i name="SYMPREC">      0.00001000</i>
  </separator>
  <separator name="dos" >
   <i type="logical" name="LORBIT"> F  </i>
   <v name="RWIGS">     -1.00000000     -1.00000000     -1.00000000</v>
   <i type="int" name="NEDOS">   301</i>
   <i name="EMIN">     10.00000000</i>
   <i name="EMAX">    -10.00000000</i>
   <i name="EFERMI">      0.00000000</i>
  </separator>
  <separator name="writing" >
   <i type="int" name="NWRITE">     2</i>
   <i type="logical" name="LWAVE"> T  </i>
   <i type="logical" name="LCHARG"> T  </i>
   <i type="logical" name="LPARD"> F  </i>
   <i type="logical" name="LVTOT"> F  </i>
   <i type="logical" name="LVHAR"> F  </i>
   <i type="logical" name="LELF"> F  </i>
   <i type="logical" name="LOPTICS"> F  </i>
   <v name="STM">      0.00000000      0.00000000      0.00000000      0.00000000      0.00000000      0.00000000      0.00000000</v>
  </separator>
  <separator name="performance" >
   <i type="int" name="NPAR">     1</i>
   <i type="int" name="NSIM">     4</i>
   <i type="int" name="NBLK">    -1</i>
   <i type="logical" name="LPLANE"> T  </i>
   <i type="logical" name="LSCALAPACK"> F  </i>
   <i type="logical" name="LSCAAWARE"> F  </i>
   <i type="logical" name="LSCALU"> F  </i>
   <i type="logical" name="LASYNC"> F  </i>
   <i type="logical" name="LORBITALREAL"> F  </i>
  </separator>
  <separator name="miscellaneous" >
   <i type="int" name="IDIOT">     3</i>
   <i type="logical" name="LMUSIC"> F  </i>
   <v name="POMASS">      1.00000000     12.01100000     35.45300000</v>
   <v name="DARWINR">      0.00000000      0.00000000      0.00000000</v>
   <v name="DARWINV">      1.00000000      1.00000000      1.00000000</v>
   <i type="logical" name="LCORR"> T  </i>
  </separator>
  <i type="logical" name="GGA_COMPAT"> T  </i>
  <i type="logical" name="LBERRY"> F  </i>
  <i type="int" name="ICORELEVEL">     0</i>
  <i type="logical" name="LDAU"> F  </i>
  <i type="int" name="I_CONSTRAINED_M">     0</i>
  <separator name="electronic exchange-correlation" >
   <i type="string" name="GGA">--</i>
   <i type="int" name="VOSKOWN">     0</i>
   <i type="logical" name="LHFCALC"> F  </i>
   <i type="string" name="PRECFOCK"></i>
   <i type="logical" name="LHFONE"> F  </i>
   <i type="logical" name="LRHFCALC"> F  </i>
   <i type="logical" name="LTHOMAS"> F  </i>
   <i type="logical" name="LMODELHF"> F  </i>
   <i name="ENCUT4O">     -1.00000000</i>
   <i type="int" name="EXXOEP">     0</i>
   <i type="int" name="FOURORBIT">     0</i>
   <i name="AEXX">      0.00000000</i>
   <i name="HFALPHA">      0.00000000</i>
   <i name="ALDAX">      1.00000000</i>
   <i name="AGGAX">      1.00000000</i>
   <i name="ALDAC">      1.00000000</i>
   <i name="AGGAC">      1.00000000</i>
   <i type="int" name="NKREDX">     1</i>
   <i type="int" name="NKREDY">     1</i>
   <i type="int" name="NKREDZ">     1</i>
   <i type="logical" name="SHIFTRED"> F  </i>
   <i type="logical" name="ODDONLY"> F  </i>
   <i type="logical" name="EVENONLY"> F  </i>
   <i type="int" name="LMAXFOCK">     0</i>
   <i type="int" name="NMAXFOCKAE">     0</i>
   <i type="logical" name="LFOCKAEDFT"> F  </i>
   <i name="HFSCREEN">      0.00000000</i>
   <i name="HFSCREENC">      0.00000000</i>
  </separator>
  <separator name="vdW DFT" >
   <i type="logical" name="LUSE_VDW"> F  </i>
   <i name="Zab_VDW">     -0.84910000</i>
   <i name="PARAM1">      0.12340000</i>
   <i name="PARAM2">      1.00000000</i>
   <i name="PARAM3">      0.00000000</i>
  </separator>
  <separator name="model GW" >
   <i type="int" name="MODEL_GW">     0</i>
   <i name="MODEL_EPS0">     61.44000000</i>
   <i name="MODEL_ALPHA">      1.00000000</i>
  </separator>
  <separator name="linear response parameters" >
   <i type="logical" name="LEPSILON"> F  </i>
   <i type="logical" name="LRPA"> F  </i>
   <i type="logical" name="LNABLA"> F  </i>
   <i type="logical" name="LVEL"> F  </i>
   <i type="int" name="KINTER">     0</i>
   <i name="CSHIFT">      0.10000000</i>
   <i name="OMEGAMAX">     -1.00000000</i>
  </separator>
  <separator name="orbital magnetization" >
   <i type="logical" name="NUCIND"> F  </i>
   <v name="MAGPOS">      0.00000000      0.00000000      0.00000000</v>
   <i type="logical" name="LNICSALL"> T  </i>
   <i type="logical" name="ORBITALMAG"> F  </i>
   <i type="logical" name="LMAGBLOCH"> F  </i>
   <i type="logical" name="LCHIMAG"> F  </i>
   <i type="logical" name="LGAUGE"> T  </i>
   <i type="int" name="MAGATOM">     0</i>
   <v name="MAGDIPOL">      0.00000000      0.00000000      0.00000000</v>
   <v name="AVECCONST">      0.00000000      0.00000000      0.00000000</v>
  </separator>
  <separator name="response functions" >
   <i type="logical" name="LADDER"> F  </i>
   <i type="logical" name="LHARTREE"> T  </i>
   <i type="int" name="IBSE">     0</i>
   <i type="logical" name="LTCTE"> F  </i>
   <i type="logical" name="LTETE"> F  </i>
   <i type="logical" name="LFXCEPS"> F  </i>
   <i type="logical" name="L2ORDER"> F  </i>
   <i type="logical" name="LUSEW"> F  </i>
   <i name="ENCUTGW">     -2.00000000</i>
   <i name="ENCUTGWSOFT">     -2.00000000</i>
   <i name="ENCUTLF">     -1.00000000</i>
   <i type="int" name="LMAXMP2">    -1</i>
   <i name="SCISSOR">      0.00000000</i>
   <i type="int" name="NOMEGA">     0</i>
   <i type="int" name="NOMEGAR">     0</i>
   <i type="int" name="NBANDSGW">    -1</i>
   <i type="int" name="NBANDSO">    -1</i>
   <i type="int" name="NBANDSV">    -1</i>
   <i name="OPTEMAX">      0.00000000</i>
   <i type="int" name="NELM">     1</i>
   <i type="int" name="DIM">     3</i>
   <i type="int" name="ANTIRES">     0</i>
   <i name="OMEGAMAX">    -30.00000000</i>
   <i name="OMEGATL">   -200.00000000</i>
   <i type="int" name="OMEGAGRID">     0</i>
   <i name="CSHIFT">     -0.10000000</i>
   <i type="logical" name="SELFENERGY"> F  </i>
   <i type="logical" name="LSPECTRAL"> F  </i>
   <i type="logical" name="ODDONLYGW"> F  </i>
   <i type="logical" name="EVENONLYGW"> F  </i>
   <i type="int" name="NKREDLFX">     1</i>
   <i type="int" name="NKREDLFY">     1</i>
   <i type="int" name="NKREDLFZ">     1</i>
   <i type="int" name="MAXMEM">  1800</i>
   <i type="int" name="TELESCOPE">     0</i>
  </separator>
 </parameters>
 <atominfo>
  <atoms>       5 </atoms>
  <types>       3 </types>
  <array name="atoms" >
   <dimension dim="1">ion</dimension>
   <field type="string">element</field>
   <field type="int">atomtype</field>
   <set>
    <rc><c>H </c><c>   1</c></rc>
    <rc><c>C </c><c>   2</c></rc>
    <rc><c>Cl</c><c>   3</c></rc>
    <rc><c>Cl</c><c>   3</c></rc>
    <rc><c>Cl</c><c>   3</c></rc>
   </set>
  </array>
  <array name="atomtypes" >
   <dimension dim="1">type</dimension>
   <field type="int">atomspertype</field>
   <field type="string">element</field>
   <field>mass</field>
   <field>valence</field>
   <field type="string">pseudopotential</field>
   <set>
    <rc><c>   1</c><c>H </c><c>      1.00000000</c><c>      1.00000000</c><c> PAW_PBE H 15Jun2001                    </c></rc>
    <rc><c>   1</c><c>C </c><c>     12.01100000</c><c>      4.00000000</c><c> PAW_PBE C 08Apr2002                    </c></rc>
    <rc><c>   3</c><c>Cl</c><c>     35.45300000</c><c>      7.00000000</c><c>  PAW_PBE Cl 17Jan2003                  </c></rc>
   </set>
  </array>
 </atominfo>
 <structure name="initialpos" >
  <crystal>
   <varray name="basis" >
    <v>       8.00000000       0.00000000       0.00000000 </v>
    <v>       0.00000000       8.00000000       0.00000000 </v>
    <v>       0.00000000       0.00000000       8.00000000 </v>
   </varray>
   <i name="volume">    512.00000000 </i>
   <varray name="rec_basis" >
    <v>       0.12500000       0.00000000       0.00000000 </v>
    <v>       0.00000000       0.12500000       0.00000000 </v>
    <v>       0.00000000       0.00000000       0.12500000 </v>
   </varray>
  </crystal>
  <varray name="positions" >
   <v>       0.50000000       0.44744619       0.60130456 </v>
   <v>       0.50000000       0.44744619       0.46556619 </v>
   <v>       0.50000000       0.65766156       0.39869544 </v>
   <v>       0.68205187       0.34233844       0.39869544 </v>
   <v>       0.31794813       0.34233844       0.39869544 </v>
  </varray>
 </structure>
 <calculation>
  <scstep>
   <time name="dav">    0.60    0.60</time>
   <time name="total">    1.43    1.44</time>
   <energy>
    <i name="alphaZ">      5.75455539 </i>
    <i name="ewald">    -30.54834368 </i>
    <i name="hartreedc">  -1135.36778373 </i>
    <i name="XCdc">     76.03208740 </i>
    <i name="pawpsdc">    634.11759208 </i>
    <i name="pawaedc">   -635.61851928 </i>
    <i name="eentropy">      0.01436041 </i>
    <i name="bandstr">    -69.70623177 </i>
    <i name="atom">   1388.68504100 </i>
    <i name="e_fr_energy">    233.36275782 </i>
    <i name="e_wo_entrp">    233.34839741 </i>
    <i name="e_0_energy">    233.35797102 </i>
   </energy>
  </scstep>
  <scstep>
   <time name="dav">    0.80    0.80</time>
   <time name="total">    0.81    0.81</time>
   <energy>
    <i name="e_fr_energy">     32.17782180 </i>
    <i name="e_wo_entrp">     32.16614318 </i>
    <i name="e_0_energy">     32.17392893 </i>
   </energy>
  </scstep>
  <scstep>
   <time name="dav">    0.60    0.60</time>
   <time name="total">    0.60    0.61</time>
   <energy>
    <i name="e_fr_energy">    -18.07471261 </i>
    <i name="e_wo_entrp">    -18.08640996 </i>
    <i name="e_0_energy">    -18.07861173 </i>
   </energy>
  </scstep>
  <scstep>
   <time name="dav">    0.81    0.81</time>
   <time name="total">    0.81    0.83</time>
   <energy>
    <i name="e_fr_energy">    -19.68041262 </i>
    <i name="e_wo_entrp">    -19.69208074 </i>
    <i name="e_0_energy">    -19.68430200 </i>
   </energy>
  </scstep>
  <scstep>
   <time name="dav">    0.81    0.81</time>
   <time name="total">    0.97    0.98</time>
   <energy>
    <i name="e_fr_energy">    -19.70656536 </i>
    <i name="e_wo_entrp">    -19.71823321 </i>
    <i name="e_0_energy">    -19.71045465 </i>
   </energy>
  </scstep>
  <scstep>
   <time name="dav">    0.71    0.71</time>
   <time name="total">    1.69    1.71</time>
   <energy>
    <i name="e_fr_energy">    -19.22798539 </i>
    <i name="e_wo_entrp">    -19.23967931 </i>
    <i name="e_0_energy">    -19.23188336 </i>
   </energy>
  </scstep>
  <scstep>
   <time name="dav">    0.82    0.82</time>
   <time name="total">    1.79    1.80</time>
   <energy>
    <i name="e_fr_energy">    -19.08152309 </i>
    <i name="e_wo_entrp">    -19.09341118 </i>
    <i name="e_0_energy">    -19.08548579 </i>
   </energy>
  </scstep>
  <scstep>
   <time name="dav">    0.81    0.82</time>
   <time name="total">    1.79    1.81</time>
   <energy>
    <i name="e_fr_energy">    -19.07981940 </i>
    <i name="e_wo_entrp">    -19.09171905 </i>
    <i name="e_0_energy">    -19.08378595 </i>
   </energy>
  </scstep>
  <scstep>
   <time name="dav">    0.61    0.62</time>
   <time name="total">    1.59    1.60</time>
   <energy>
    <i name="e_fr_energy">    -19.08083045 </i>
    <i name="e_wo_entrp">    -19.09271962 </i>
    <i name="e_0_energy">    -19.08479351 </i>
   </energy>
  </scstep>
  <scstep>
   <time name="dav">    0.62    0.62</time>
   <time name="total">    1.59    1.60</time>
   <energy>
    <i name="e_fr_energy">    -19.08181651 </i>
    <i name="e_wo_entrp">    -19.09368743 </i>
    <i name="e_0_energy">    -19.08577348 </i>
   </energy>
  </scstep>
  <scstep>
   <time name="dav">    0.52    0.52</time>
   <time name="total">    1.50    1.51</time>
   <energy>
    <i name="e_fr_energy">    -19.08303030 </i>
    <i name="e_wo_entrp">    -19.09487722 </i>
    <i name="e_0_energy">    -19.08697928 </i>
   </energy>
  </scstep>
  <scstep>
   <time name="dav">    0.52    0.52</time>
   <time name="total">    1.50    1.51</time>
   <energy>
    <i name="e_fr_energy">    -19.08357024 </i>
    <i name="e_wo_entrp">    -19.09541530 </i>
    <i name="e_0_energy">    -19.08751859 </i>
   </energy>
  </scstep>
  <scstep>
   <time name="dav">    0.52    0.52</time>
   <time name="total">    1.50    1.51</time>
   <energy>
    <i name="e_fr_energy">    -19.08392099 </i>
    <i name="e_wo_entrp">    -19.09576660 </i>
    <i name="e_0_energy">    -19.08786953 </i>
   </energy>
  </scstep>
  <scstep>
   <time name="dav">    0.52    0.52</time>
   <time name="total">    1.34    1.35</time>
   <energy>
    <i name="alphaZ">      5.75455539 </i>
    <i name="ewald">    -30.54834368 </i>
    <i name="hartreedc">  -1155.97546065 </i>
    <i name="XCdc">     77.44103623 </i>
    <i name="pawpsdc">    703.52299114 </i>
    <i name="pawaedc">   -705.49658785 </i>
    <i name="eentropy">      0.01184458 </i>
    <i name="bandstr">   -302.47908725 </i>
    <i name="atom">   1388.68504100 </i>
    <i name="e_fr_energy">    -19.08401109 </i>
    <i name="e_wo_entrp">    -19.09585567 </i>
    <i name="e_0_energy">    -19.08795928 </i>
   </energy>
  </scstep>
  <parameters_embedded>
   <separator name="dft+d2" >
    <i type="logical" name="LVDW"> F  </i>
   </separator>
  </parameters_embedded>
  <structure>
   <crystal>
    <varray name="basis" >
     <v>       8.00000000       0.00000000       0.00000000 </v>
     <v>       0.00000000       8.00000000       0.00000000 </v>
     <v>       0.00000000       0.00000000       8.00000000 </v>
    </varray>
    <i name="volume">    512.00000000 </i>
    <varray name="rec_basis" >
     <v>       0.12500000       0.00000000       0.00000000 </v>
     <v>       0.00000000       0.12500000       0.00000000 </v>
     <v>       0.00000000       0.00000000       0.12500000 </v>
    </varray>
   </crystal>
   <varray name="positions" >
    <v>       0.50000000       0.44744619       0.60130456 </v>
    <v>       0.50000000       0.44744619       0.46556619 </v>
    <v>       0.50000000       0.65766156       0.39869544 </v>
    <v>       0.68205187       0.34233844       0.39869544 </v>
    <v>       0.31794813       0.34233844       0.39869544 </v>
   </varray>
  </structure>
  <varray name="forces" >
   <v>       0.00000000      -0.00074188       0.33285698 </v>
   <v>       0.00000000       0.01531369      -0.21732521 </v>
   <v>       0.00000000       0.11890345      -0.03964284 </v>
   <v>       0.13396745      -0.06673763      -0.03794447 </v>
   <v>      -0.13396745      -0.06673763      -0.03794447 </v>
  </varray>
  <varray name="stress" >
   <v>       0.85050077       0.00000000       0.00000000 </v>
   <v>       0.00000000      -0.41871185       0.01542595 </v>
   <v>       0.00000000       0.01541032      -0.84510525 </v>
  </varray>
  <energy>
   <i name="e_fr_energy">    -19.08401109 </i>
   <i name="e_wo_entrp">    -19.08795928 </i>
   <i name="e_0_energy">      0.01184458 </i>
  </energy>
  <time name="totalsc">   22.76   23.03</time>
 </calculation>
 <calculation>
  <scstep>
   <time name="dav">    0.59    0.59</time>
   <time name="total">    1.57    1.57</time>
   <energy>
    <i name="alphaZ">      5.75455539 </i>
    <i name="ewald">    -36.27595434 </i>
    <i name="hartreedc">  -1151.20616920 </i>
    <i name="XCdc">     77.35123117 </i>
    <i name="pawpsdc">    703.56040313 </i>
    <i name="pawaedc">   -705.53417705 </i>
    <i name="eentropy">      0.01263937 </i>
    <i name="bandstr">   -301.42865758 </i>
    <i name="atom">   1388.68504100 </i>
    <i name="e_fr_energy">    -19.08108810 </i>
    <i name="e_wo_entrp">    -19.09372747 </i>
    <i name="e_0_energy">    -19.08530122 </i>
   </energy>
  </scstep>
  <scstep>
   <time name="dav">    0.82    0.82</time>
   <time name="total">    1.79    1.79</time>
   <energy>
    <i name="e_fr_energy">    -19.08224413 </i>
    <i name="e_wo_entrp">    -19.09476769 </i>
    <i name="e_0_energy">    -19.08641865 </i>
   </energy>
  </scstep>
  <scstep>
   <time name="dav">    0.60    0.60</time>
   <time name="total">    1.58    1.59</time>
   <energy>
    <i name="e_fr_energy">    -19.08200261 </i>
    <i name="e_wo_entrp">    -19.09443334 </i>
    <i name="e_0_energy">    -19.08614619 </i>
   </energy>
  </scstep>
  <scstep>
   <time name="dav">    0.60    0.60</time>
   <time name="total">    1.42    1.43</time>
   <energy>
    <i name="alphaZ">      5.75455539 </i>
    <i name="ewald">    -36.27595434 </i>
    <i name="hartreedc">  -1150.75985732 </i>
    <i name="XCdc">     77.33003194 </i>
    <i name="pawpsdc">    701.51997451 </i>
    <i name="pawaedc">   -703.47928117 </i>
    <i name="eentropy">      0.01243949 </i>
    <i name="bandstr">   -301.86893815 </i>
    <i name="atom">   1388.68504100 </i>
    <i name="e_fr_energy">    -19.08198864 </i>
    <i name="e_wo_entrp">    -19.09442813 </i>
    <i name="e_0_energy">    -19.08613514 </i>
   </energy>
  </scstep>
  <structure>
   <crystal>
    <varray name="basis" >
     <v>       8.00000000       0.00000000       0.00000000 </v>
     <v>       0.00000000       8.00000000       0.00000000 </v>
     <v>       0.00000000       0.00000000       8.00000000 </v>
    </varray>
    <i name="volume">    512.00000000 </i>
    <varray name="rec_basis" >
     <v>       0.12500000       0.00000000       0.00000000 </v>
     <v>       0.00000000       0.12500000       0.00000000 </v>
     <v>       0.00000000       0.00000000       0.12500000 </v>
    </varray>
   </crystal>
   <varray name="positions" >
    <v>       0.50000000       0.44744171       0.60331180 </v>
    <v>       0.50000000       0.44753853       0.46425564 </v>
    <v>       0.50000000       0.65837859       0.39845638 </v>
    <v>       0.68285974       0.34193599       0.39846662 </v>
    <v>       0.31714026       0.34193599       0.39846662 </v>
   </varray>
  </structure>
  <varray name="forces" >
   <v>       0.00000000      -0.00087222      -0.49597140 </v>
   <v>       0.00000000      -0.01176935       0.63794302 </v>
   <v>       0.00000000       0.01116580      -0.05515030 </v>
   <v>       0.01183502       0.00073789      -0.04341066 </v>
   <v>      -0.01183502       0.00073789      -0.04341066 </v>
  </varray>
  <varray name="stress" >
   <v>      -0.34115175       0.00000000       0.00000000 </v>
   <v>       0.00000000      -1.43724421      -0.02619540 </v>
   <v>       0.00000000      -0.02619033      -3.67967504 </v>
  </varray>
  <energy>
   <i name="e_fr_energy">    -19.08198864 </i>
   <i name="e_wo_entrp">    -19.08613514 </i>
   <i name="e_0_energy">      0.01243949 </i>
  </energy>
  <time name="totalsc">    9.27    9.34</time>
 </calculation>
 <calculation>
  <scstep>
   <time name="dav">    0.59    0.59</time>
   <time name="total">    1.56    1.56</time>
   <energy>
    <i name="alphaZ">      5.75455539 </i>
    <i name="ewald">    -36.53653375 </i>
    <i name="hartreedc">  -1150.29160571 </i>
    <i name="XCdc">     77.33488318 </i>
    <i name="pawpsdc">    701.22741107 </i>
    <i name="pawaedc">   -703.18508268 </i>
    <i name="eentropy">      0.01186207 </i>
    <i name="bandstr">   -302.08705444 </i>
    <i name="atom">   1388.68504100 </i>
    <i name="e_fr_energy">    -19.08652386 </i>
    <i name="e_wo_entrp">    -19.09838593 </i>
    <i name="e_0_energy">    -19.09047788 </i>
   </energy>
  </scstep>
  <scstep>
   <time name="dav">    0.70    0.70</time>
   <time name="total">    1.67    1.68</time>
   <energy>
    <i name="e_fr_energy">    -19.08680625 </i>
    <i name="e_wo_entrp">    -19.09867727 </i>
    <i name="e_0_energy">    -19.09076326 </i>
   </energy>
  </scstep>
  <scstep>
   <time name="dav">    0.68    0.68</time>
   <time name="total">    1.57    1.59</time>
   <energy>
    <i name="alphaZ">      5.75455539 </i>
    <i name="ewald">    -36.53653375 </i>
    <i name="hartreedc">  -1150.38921727 </i>
    <i name="XCdc">     77.34571884 </i>
    <i name="pawpsdc">    701.54182462 </i>
    <i name="pawaedc">   -703.49978565 </i>
    <i name="eentropy">      0.01189027 </i>
    <i name="bandstr">   -302.00022153 </i>
    <i name="atom">   1388.68504100 </i>
    <i name="e_fr_energy">    -19.08672807 </i>
    <i name="e_wo_entrp">    -19.09861834 </i>
    <i name="e_0_energy">    -19.09069150 </i>
   </energy>
  </scstep>
  <structure>
   <crystal>
    <varray name="basis" >
     <v>       8.00000000       0.00000000       0.00000000 </v>
     <v>       0.00000000       8.00000000       0.00000000 </v>
     <v>       0.00000000       0.00000000       8.00000000 </v>
    </varray>
    <i name="volume">    512.00000000 </i>
    <varray name="rec_basis" >
     <v>       0.12500000       0.00000000       0.00000000 </v>
     <v>       0.00000000       0.12500000       0.00000000 </v>
     <v>       0.00000000       0.00000000       0.12500000 </v>
    </varray>
   </crystal>
   <varray name="positions" >
    <v>       0.50000000       0.44743987       0.60226261 </v>
    <v>       0.50000000       0.44751364       0.46560516 </v>
    <v>       0.50000000       0.65840221       0.39833971 </v>
    <v>       0.68288478       0.34193755       0.39837479 </v>
    <v>       0.31711522       0.34193755       0.39837479 </v>
   </varray>
  </structure>
  <varray name="forces" >
   <v>       0.00000000      -0.00099978       0.08015954 </v>
   <v>       0.00000000      -0.00565491      -0.12385791 </v>
   <v>       0.00000000      -0.04042695       0.00853943 </v>
   <v>      -0.03065288       0.02354082       0.01757947 </v>
   <v>       0.03065288       0.02354082       0.01757947 </v>
  </varray>
  <varray name="stress" >
   <v>      -0.61024076       0.00000000       0.00000000 </v>
   <v>       0.00000000      -1.72095577      -0.02083961 </v>
   <v>       0.00000000      -0.02082306      -1.89036972 </v>
  </varray>
  <energy>
   <i name="e_fr_energy">    -19.08672807 </i>
   <i name="e_wo_entrp">    -19.09069150 </i>
   <i name="e_0_energy">      0.01189027 </i>
  </energy>
  <time name="totalsc">    7.73    7.79</time>
 </calculation>
 <calculation>
  <scstep>
   <time name="dav">    0.59    0.59</time>
   <time name="total">    1.57    1.57</time>
   <energy>
    <i name="alphaZ">      5.75455539 </i>
    <i name="ewald">    -35.33528805 </i>
    <i name="hartreedc">  -1151.49726083 </i>
    <i name="XCdc">     77.36035709 </i>
    <i name="pawpsdc">    701.58660502 </i>
    <i name="pawaedc">   -703.54488349 </i>
    <i name="eentropy">      0.01193089 </i>
    <i name="bandstr">   -302.10793544 </i>
    <i name="atom">   1388.68504100 </i>
    <i name="e_fr_energy">    -19.08687842 </i>
    <i name="e_wo_entrp">    -19.09880931 </i>
    <i name="e_0_energy">    -19.09085538 </i>
   </energy>
  </scstep>
  <scstep>
   <time name="dav">    0.80    0.80</time>
   <time name="total">    1.62    1.62</time>
   <energy>
    <i name="alphaZ">      5.75455539 </i>
    <i name="ewald">    -35.33528805 </i>
    <i name="hartreedc">  -1151.53073904 </i>
    <i name="XCdc">     77.36064847 </i>
    <i name="pawpsdc">    701.72062712 </i>
    <i name="pawaedc">   -703.67985900 </i>
    <i name="eentropy">      0.01193053 </i>
    <i name="bandstr">   -302.07387212 </i>
    <i name="atom">   1388.68504100 </i>
    <i name="e_fr_energy">    -19.08695570 </i>
    <i name="e_wo_entrp">    -19.09888622 </i>
    <i name="e_0_energy">    -19.09093254 </i>
   </energy>
  </scstep>
  <structure>
   <crystal>
    <varray name="basis" >
     <v>       8.00000000       0.00000000       0.00000000 </v>
     <v>       0.00000000       8.00000000       0.00000000 </v>
     <v>       0.00000000       0.00000000       8.00000000 </v>
    </varray>
    <i name="volume">    512.00000000 </i>
    <varray name="rec_basis" >
     <v>       0.12500000       0.00000000       0.00000000 </v>
     <v>       0.00000000       0.12500000       0.00000000 </v>
     <v>       0.00000000       0.00000000       0.12500000 </v>
    </varray>
   </crystal>
   <varray name="positions" >
    <v>       0.50000000       0.44743426       0.60235805 </v>
    <v>       0.50000000       0.44747762       0.46537728 </v>
    <v>       0.50000000       0.65820442       0.39834843 </v>
    <v>       0.68273692       0.34205726       0.39843665 </v>
    <v>       0.31726308       0.34205726       0.39843665 </v>
   </varray>
  </structure>
  <varray name="forces" >
   <v>       0.00000000      -0.00078588       0.00008715 </v>
   <v>       0.00000000       0.00032818       0.01668596 </v>
   <v>       0.00000000       0.00081652      -0.00999746 </v>
   <v>       0.00754961      -0.00017941      -0.00338782 </v>
   <v>      -0.00754961      -0.00017941      -0.00338782 </v>
  </varray>
  <varray name="stress" >
   <v>      -0.25998684       0.00000000       0.00000000 </v>
   <v>       0.00000000      -1.37515124      -0.01167721 </v>
   <v>       0.00000000      -0.01167848      -2.01964173 </v>
  </varray>
  <energy>
   <i name="e_fr_energy">    -19.08695570 </i>
   <i name="e_wo_entrp">    -19.09093254 </i>
   <i name="e_0_energy">      0.01193053 </i>
  </energy>
  <time name="totalsc">    5.81    5.87</time>
  <eigenvalues>
   <array>
    <dimension dim="1">band</dimension>
    <dimension dim="2">kpoint</dimension>
    <dimension dim="3">spin</dimension>
    <field>eigene</field>
    <field>occ</field>
    <set>
     <set comment="spin 1">
      <set comment="kpoint 1">
       <r>  -22.5145    1.0000 </r>
       <r>  -19.9201    1.0000 </r>
       <r>  -19.9113    1.0000 </r>
       <r>  -14.9886    1.0000 </r>
       <r>  -11.3634    1.0000 </r>
       <r>  -10.7113    1.0000 </r>
       <r>  -10.6996    1.0000 </r>
       <r>   -7.4153    1.0000 </r>
       <r>   -7.4087    1.0000 </r>
       <r>   -6.6823    1.0000 </r>
       <r>   -6.6744    1.0000 </r>
       <r>   -6.5640    1.0004 </r>
       <r>   -6.1833    0.9996 </r>
       <r>   -0.9840    0.0000 </r>
       <r>    0.0818    0.0000 </r>
       <r>    0.2224    0.0000 </r>
       <r>    0.4878    0.0000 </r>
      </set>
     </set>
    </set>
   </array>
  </eigenvalues>
  <separator name="orbital magnetization" >
   <v name="MAGDIPOLOUT">      0.00000000      0.00000000      0.00000000</v>
  </separator>
 </calculation>
 <structure name="finalpos" >
  <crystal>
   <varray name="basis" >
    <v>       8.00000000       0.00000000       0.00000000 </v>
    <v>       0.00000000       8.00000000       0.00000000 </v>
    <v>       0.00000000       0.00000000       8.00000000 </v>
   </varray>
   <i name="volume">    512.00000000 </i>
   <varray name="rec_basis" >
    <v>       0.12500000       0.00000000       0.00000000 </v>
    <v>       0.00000000       0.12500000       0.00000000 </v>
    <v>       0.00000000       0.00000000       0.12500000 </v>
   </varray>
  </crystal>
  <varray name="positions" >
   <v>       0.50000000       0.44743426       0.60235805 </v>
   <v>       0.50000000       0.44747762       0.46537728 </v>
   <v>       0.50000000       0.65820442       0.39834843 </v>
   <v>       0.68273692       0.34205726       0.39843665 </v>
   <v>       0.31726308       0.34205726       0.39843665 </v>
  </varray>
 </structure>
</modeling>
