 running on    1 nodes
 distr:  one band on    1 nodes,    1 groups
 vasp.5.2.12 11Nov11 complex                                                    
  
 POSCAR found :  2 types and       3 ions
 LDA part: xc-table for Pade appr. of Perdew
 POSCAR, INCAR and KPOINTS ok, starting setup
 WARNING: small aliasing (wrap around) errors must be expected
 FFT: planning ...(           1 )
 WAVECAR not read
 entering main loop
       N       E                     dE             d eps       ncg     rms          rms(c)
DAV:   1     0.105393385193E+03    0.10539E+03   -0.46012E+03    32   0.593E+02
DAV:   2    -0.131639155704E+02   -0.11856E+03   -0.11731E+03    48   0.176E+02
DAV:   3    -0.242137457956E+02   -0.11050E+02   -0.11006E+02    32   0.689E+01
DAV:   4    -0.244908482507E+02   -0.27710E+00   -0.27482E+00    36   0.111E+01
DAV:   5    -0.244921063379E+02   -0.12581E-02   -0.12550E-02    32   0.690E-01    0.792E+00
DAV:   6    -0.230945406479E+02    0.13976E+01   -0.39615E+00    28   0.182E+01    0.343E+00
DAV:   7    -0.229813113117E+02    0.11323E+00   -0.24249E-01    28   0.456E+00    0.197E+00
DAV:   8    -0.229286964044E+02    0.52615E-01   -0.20881E-01    28   0.342E+00    0.373E-01
DAV:   9    -0.229266785679E+02    0.20178E-02   -0.23288E-02    28   0.139E+00    0.244E-01
DAV:  10    -0.229279743959E+02   -0.12958E-02   -0.26503E-03    32   0.536E-01    0.542E-02
DAV:  11    -0.229329004813E+02   -0.49261E-02   -0.87058E-04    24   0.202E-01    0.207E-02
DAV:  12    -0.229341811373E+02   -0.12807E-02   -0.77645E-05    16   0.600E-02    0.175E-02
DAV:  13    -0.229357593246E+02   -0.15782E-02   -0.26103E-04    28   0.906E-02    0.605E-03
DAV:  14    -0.229359345091E+02   -0.17518E-03   -0.98277E-06    20   0.236E-02    0.291E-03
DAV:  15    -0.229360264796E+02   -0.91971E-04   -0.64201E-06    24   0.167E-02
   1 F= -.22936026E+02 E0= -.22943757E+02  d E =-.229360E+02
 BRION: g(F)=  0.326E-02 g(S)=  0.000E+00
 bond charge predicted
       N       E                     dE             d eps       ncg     rms          rms(c)
DAV:   1    -0.229312249873E+02    0.47095E-02   -0.86767E-01    28   0.922E+00    0.280E-01
DAV:   2    -0.229315210384E+02   -0.29605E-03   -0.19096E-02    32   0.122E+00    0.118E-01
DAV:   3    -0.229312243328E+02    0.29671E-03   -0.61524E-04    32   0.247E-01    0.521E-02
DAV:   4    -0.229312164697E+02    0.78631E-05   -0.21748E-04    20   0.135E-01
   2 F= -.22931216E+02 E0= -.22938947E+02  d E =0.481001E-02
 BRION: g(F)=  0.528E-01 g(S)=  0.000E+00 retain N=  1 mean eig= 0.20
 eig:   0.199
 bond charge predicted
       N       E                     dE             d eps       ncg     rms          rms(c)
DAV:   1    -0.229364477492E+02   -0.52234E-02   -0.55451E-01    24   0.735E+00    0.228E-01
DAV:   2    -0.229365749250E+02   -0.12718E-03   -0.12298E-02    32   0.980E-01    0.917E-02
DAV:   3    -0.229363859827E+02    0.18894E-03   -0.38159E-04    32   0.197E-01    0.408E-02
DAV:   4    -0.229363805054E+02    0.54774E-05   -0.13829E-04    20   0.107E-01
   3 F= -.22936381E+02 E0= -.22944111E+02  d E =-.516404E-02
 BRION: g(F)=  0.505E-05 g(S)=  0.000E+00 retain N=  1 mean eig= 0.20
 eig:   0.197
 reached required accuracy - stopping structural energy minimisation
 writing wavefunctions
NPROCS =  1
