    3    3   50    1
  0.1706667E+03  0.8000000E-09  0.8000000E-09  0.8000000E-09  0.5000000E-15
  1.000000000000000E-004
  CAR 
 unknown system                          
   16    1   12
 
  0.0000000E+00  0.0000000E+00  0.0000000E+00  0.1000000E+01
   1      -28.785175
   2      -27.771851
   3      -13.388414
   4      -12.221426
   5      -12.221426
   6      -12.177416
   7       -8.645133
   8       -8.645133
   9       -0.870721
  10       -0.142192
  11       -0.142192
  12        1.319519
