<?xml version="1.0" encoding="ISO-8859-1"?>
<modeling>
 <generator>
  <i name="program" type="string">vasp </i>
  <i name="version" type="string">5.2.12  </i>
  <i name="subversion" type="string">11Nov11 complex                                                      parallel </i>
  <i name="platform" type="string">LinuxIFC </i>
  <i name="date" type="string">2012 11 03 </i>
  <i name="time" type="string">02:28:14 </i>
 </generator>
 <incar>
  <i type="string" name="PREC">normal</i>
  <i type="int" name="IBRION">     1</i>
  <i type="int" name="NSW">    50</i>
  <i name="ENCUT">    350.00000000</i>
 </incar>
 <kpoints>
  <generation param="Monkhorst-Pack">
   <v type="int" name="divisions">       1        1        1 </v>
   <v name="usershift">      0.00000000       0.00000000       0.00000000 </v>
   <v name="genvec1">      1.00000000       0.00000000       0.00000000 </v>
   <v name="genvec2">      0.00000000       1.00000000       0.00000000 </v>
   <v name="genvec3">      0.00000000       0.00000000       1.00000000 </v>
   <v name="shift">      0.00000000       0.00000000       0.00000000 </v>
  </generation>
  <varray name="kpointlist" >
   <v>       0.00000000       0.00000000       0.00000000 </v>
  </varray>
  <varray name="weights" >
   <v>       1.00000000 </v>
  </varray>
 </kpoints>
 <parameters>
  <separator name="general" >
   <i type="string" name="SYSTEM">unknown system</i>
   <i type="logical" name="LCOMPAT"> F  </i>
  </separator>
  <separator name="electronic" >
   <i type="string" name="PREC">normal</i>
   <i name="ENMAX">    350.00000000</i>
   <i name="ENAUG">    644.87300000</i>
   <i name="EDIFF">      0.00010000</i>
   <i type="int" name="IALGO">    38</i>
   <i type="int" name="IWAVPR">    11</i>
   <i type="int" name="NBANDS">    12</i>
   <i name="NELECT">     16.00000000</i>
   <i type="int" name="TURBO">     0</i>
   <i type="int" name="IRESTART">     0</i>
   <i type="int" name="NREBOOT">     0</i>
   <i type="int" name="NMIN">     0</i>
   <i name="EREF">      0.00000000</i>
   <separator name="electronic smearing" >
    <i type="int" name="ISMEAR">     1</i>
    <i name="SIGMA">      0.20000000</i>
    <i name="KSPACING">      0.50000000</i>
    <i type="logical" name="KGAMMA"> T  </i>
   </separator>
   <separator name="electronic projectors" >
    <i type="logical" name="LREAL"> F  </i>
    <v name="ROPT">      0.00000000      0.00000000</v>
    <i type="int" name="LMAXPAW">  -100</i>
    <i type="int" name="LMAXMIX">     2</i>
    <i type="logical" name="NLSPLINE"> F  </i>
   </separator>
   <separator name="electronic startup" >
    <i type="int" name="ISTART">     0</i>
    <i type="int" name="ICHARG">     2</i>
    <i type="int" name="INIWAV">     1</i>
   </separator>
   <separator name="electronic spin" >
    <i type="int" name="ISPIN">     1</i>
    <i type="logical" name="LNONCOLLINEAR"> F  </i>
    <v name="MAGMOM">      1.00000000      1.00000000      1.00000000</v>
    <i name="NUPDOWN">     -1.00000000</i>
    <i type="logical" name="LSORBIT"> F  </i>
    <v name="SAXIS">      0.00000000      0.00000000      1.00000000</v>
    <i type="logical" name="LSPIRAL"> F  </i>
    <v name="QSPIRAL">      0.00000000      0.00000000      0.00000000</v>
    <i type="logical" name="LZEROZ"> F  </i>
   </separator>
   <separator name="electronic exchange-correlation" >
    <i type="logical" name="LASPH"> F  </i>
    <i type="logical" name="LMETAGGA"> F  </i>
   </separator>
   <separator name="electronic convergence" >
    <i type="int" name="NELM">    60</i>
    <i type="int" name="NELMDL">    -5</i>
    <i type="int" name="NELMIN">     2</i>
    <i name="ENINI">    350.00000000</i>
    <separator name="electronic convergence detail" >
     <i type="logical" name="LDIAG"> T  </i>
     <i type="logical" name="LSUBROT"> T  </i>
     <i name="WEIMIN">      0.00100000</i>
     <i name="EBREAK">      0.00000208</i>
     <i name="DEPER">      0.30000000</i>
     <i type="int" name="NRMM">     4</i>
     <i name="TIME">      0.40000000</i>
    </separator>
   </separator>
   <separator name="electronic mixer" >
    <i name="AMIX">      0.40000000</i>
    <i name="BMIX">      1.00000000</i>
    <i name="AMIN">      0.10000000</i>
    <i name="AMIX_MAG">      1.60000000</i>
    <i name="BMIX_MAG">      1.00000000</i>
    <separator name="electronic mixer details" >
     <i type="int" name="IMIX">     4</i>
     <i type="int" name="MAXMIX">   -45</i>
     <i name="WC">    100.00000000</i>
     <i type="int" name="INIMIX">     1</i>
     <i type="int" name="MIXPRE">     1</i>
     <i type="int" name="MREMOVE">     5</i>
    </separator>
   </separator>
   <separator name="electronic dipolcorrection" >
    <i type="logical" name="LDIPOL"> F  </i>
    <i type="logical" name="LMONO"> F  </i>
    <i type="int" name="IDIPOL">     0</i>
    <i name="EPSILON">      1.00000000</i>
    <v name="DIPOL">   -100.00000000   -100.00000000   -100.00000000</v>
    <i name="EFIELD">      0.00000000</i>
   </separator>
  </separator>
  <separator name="grids" >
   <i type="int" name="NGX">    40</i>
   <i type="int" name="NGY">    40</i>
   <i type="int" name="NGZ">    40</i>
   <i type="int" name="NGXF">    80</i>
   <i type="int" name="NGYF">    80</i>
   <i type="int" name="NGZF">    80</i>
   <i type="logical" name="ADDGRID"> F  </i>
  </separator>
  <separator name="ionic" >
   <i type="int" name="NSW">    50</i>
   <i type="int" name="IBRION">     1</i>
   <i type="int" name="ISIF">     2</i>
   <i name="PSTRESS">      0.00000000</i>
   <i name="EDIFFG">      0.00100000</i>
   <i type="int" name="NFREE">     0</i>
   <i name="POTIM">      0.50000000</i>
   <i name="SMASS">     -3.00000000</i>
   <i name="SCALEE">      1.00000000</i>
  </separator>
  <separator name="ionic md" >
   <i name="TEBEG">      0.00010000</i>
   <i name="TEEND">      0.00010000</i>
   <i type="int" name="NBLOCK">     1</i>
   <i type="int" name="KBLOCK">    50</i>
   <i type="int" name="NPACO">   256</i>
   <i name="APACO">     16.00000000</i>
  </separator>
  <separator name="symmetry" >
   <i type="int" name="ISYM">     2</i>
   <i name="SYMPREC">      0.00001000</i>
  </separator>
  <separator name="dos" >
   <i type="logical" name="LORBIT"> F  </i>
   <v name="RWIGS">     -1.00000000     -1.00000000</v>
   <i type="int" name="NEDOS">   301</i>
   <i name="EMIN">     10.00000000</i>
   <i name="EMAX">    -10.00000000</i>
   <i name="EFERMI">      0.00000000</i>
  </separator>
  <separator name="writing" >
   <i type="int" name="NWRITE">     2</i>
   <i type="logical" name="LWAVE"> T  </i>
   <i type="logical" name="LCHARG"> T  </i>
   <i type="logical" name="LPARD"> F  </i>
   <i type="logical" name="LVTOT"> F  </i>
   <i type="logical" name="LVHAR"> F  </i>
   <i type="logical" name="LELF"> F  </i>
   <i type="logical" name="LOPTICS"> F  </i>
   <v name="STM">      0.00000000      0.00000000      0.00000000      0.00000000      0.00000000      0.00000000      0.00000000</v>
  </separator>
  <separator name="performance" >
   <i type="int" name="NPAR">     1</i>
   <i type="int" name="NSIM">     4</i>
   <i type="int" name="NBLK">    -1</i>
   <i type="logical" name="LPLANE"> T  </i>
   <i type="logical" name="LSCALAPACK"> F  </i>
   <i type="logical" name="LSCAAWARE"> F  </i>
   <i type="logical" name="LSCALU"> F  </i>
   <i type="logical" name="LASYNC"> F  </i>
   <i type="logical" name="LORBITALREAL"> F  </i>
  </separator>
  <separator name="miscellaneous" >
   <i type="int" name="IDIOT">     3</i>
   <i type="logical" name="LMUSIC"> F  </i>
   <v name="POMASS">     12.01100000     16.00000000</v>
   <v name="DARWINR">      0.00000000      0.00000000</v>
   <v name="DARWINV">      1.00000000      1.00000000</v>
   <i type="logical" name="LCORR"> T  </i>
  </separator>
  <i type="logical" name="GGA_COMPAT"> T  </i>
  <i type="logical" name="LBERRY"> F  </i>
  <i type="int" name="ICORELEVEL">     0</i>
  <i type="logical" name="LDAU"> F  </i>
  <i type="int" name="I_CONSTRAINED_M">     0</i>
  <separator name="electronic exchange-correlation" >
   <i type="string" name="GGA">--</i>
   <i type="int" name="VOSKOWN">     0</i>
   <i type="logical" name="LHFCALC"> F  </i>
   <i type="string" name="PRECFOCK"></i>
   <i type="logical" name="LHFONE"> F  </i>
   <i type="logical" name="LRHFCALC"> F  </i>
   <i type="logical" name="LTHOMAS"> F  </i>
   <i type="logical" name="LMODELHF"> F  </i>
   <i name="ENCUT4O">     -1.00000000</i>
   <i type="int" name="EXXOEP">     0</i>
   <i type="int" name="FOURORBIT">     0</i>
   <i name="AEXX">      0.00000000</i>
   <i name="HFALPHA">      0.00000000</i>
   <i name="ALDAX">      1.00000000</i>
   <i name="AGGAX">      1.00000000</i>
   <i name="ALDAC">      1.00000000</i>
   <i name="AGGAC">      1.00000000</i>
   <i type="int" name="NKREDX">     1</i>
   <i type="int" name="NKREDY">     1</i>
   <i type="int" name="NKREDZ">     1</i>
   <i type="logical" name="SHIFTRED"> F  </i>
   <i type="logical" name="ODDONLY"> F  </i>
   <i type="logical" name="EVENONLY"> F  </i>
   <i type="int" name="LMAXFOCK">     0</i>
   <i type="int" name="NMAXFOCKAE">     0</i>
   <i type="logical" name="LFOCKAEDFT"> F  </i>
   <i name="HFSCREEN">      0.00000000</i>
   <i name="HFSCREENC">      0.00000000</i>
  </separator>
  <separator name="vdW DFT" >
   <i type="logical" name="LUSE_VDW"> F  </i>
   <i name="Zab_VDW">     -0.84910000</i>
   <i name="PARAM1">      0.12340000</i>
   <i name="PARAM2">      1.00000000</i>
   <i name="PARAM3">      0.00000000</i>
  </separator>
  <separator name="model GW" >
   <i type="int" name="MODEL_GW">     0</i>
   <i name="MODEL_EPS0">    102.40000000</i>
   <i name="MODEL_ALPHA">      1.00000000</i>
  </separator>
  <separator name="linear response parameters" >
   <i type="logical" name="LEPSILON"> F  </i>
   <i type="logical" name="LRPA"> F  </i>
   <i type="logical" name="LNABLA"> F  </i>
   <i type="logical" name="LVEL"> F  </i>
   <i type="int" name="KINTER">     0</i>
   <i name="CSHIFT">      0.10000000</i>
   <i name="OMEGAMAX">     -1.00000000</i>
  </separator>
  <separator name="orbital magnetization" >
   <i type="logical" name="NUCIND"> F  </i>
   <v name="MAGPOS">      0.00000000      0.00000000      0.00000000</v>
   <i type="logical" name="LNICSALL"> T  </i>
   <i type="logical" name="ORBITALMAG"> F  </i>
   <i type="logical" name="LMAGBLOCH"> F  </i>
   <i type="logical" name="LCHIMAG"> F  </i>
   <i type="logical" name="LGAUGE"> T  </i>
   <i type="int" name="MAGATOM">     0</i>
   <v name="MAGDIPOL">      0.00000000      0.00000000      0.00000000</v>
   <v name="AVECCONST">      0.00000000      0.00000000      0.00000000</v>
  </separator>
  <separator name="response functions" >
   <i type="logical" name="LADDER"> F  </i>
   <i type="logical" name="LHARTREE"> T  </i>
   <i type="int" name="IBSE">     0</i>
   <i type="logical" name="LTCTE"> F  </i>
   <i type="logical" name="LTETE"> F  </i>
   <i type="logical" name="LFXCEPS"> F  </i>
   <i type="logical" name="L2ORDER"> F  </i>
   <i type="logical" name="LUSEW"> F  </i>
   <i name="ENCUTGW">     -2.00000000</i>
   <i name="ENCUTGWSOFT">     -2.00000000</i>
   <i name="ENCUTLF">     -1.00000000</i>
   <i type="int" name="LMAXMP2">    -1</i>
   <i name="SCISSOR">      0.00000000</i>
   <i type="int" name="NOMEGA">     0</i>
   <i type="int" name="NOMEGAR">     0</i>
   <i type="int" name="NBANDSGW">    -1</i>
   <i type="int" name="NBANDSO">    -1</i>
   <i type="int" name="NBANDSV">    -1</i>
   <i name="OPTEMAX">      0.00000000</i>
   <i type="int" name="NELM">     1</i>
   <i type="int" name="DIM">     3</i>
   <i type="int" name="ANTIRES">     0</i>
   <i name="OMEGAMAX">    -30.00000000</i>
   <i name="OMEGATL">   -200.00000000</i>
   <i type="int" name="OMEGAGRID">     0</i>
   <i name="CSHIFT">     -0.10000000</i>
   <i type="logical" name="SELFENERGY"> F  </i>
   <i type="logical" name="LSPECTRAL"> F  </i>
   <i type="logical" name="ODDONLYGW"> F  </i>
   <i type="logical" name="EVENONLYGW"> F  </i>
   <i type="int" name="NKREDLFX">     1</i>
   <i type="int" name="NKREDLFY">     1</i>
   <i type="int" name="NKREDLFZ">     1</i>
   <i type="int" name="MAXMEM">  1800</i>
   <i type="int" name="TELESCOPE">     0</i>
  </separator>
 </parameters>
 <atominfo>
  <atoms>       3 </atoms>
  <types>       2 </types>
  <array name="atoms" >
   <dimension dim="1">ion</dimension>
   <field type="string">element</field>
   <field type="int">atomtype</field>
   <set>
    <rc><c>C </c><c>   1</c></rc>
    <rc><c>O </c><c>   2</c></rc>
    <rc><c>O </c><c>   2</c></rc>
   </set>
  </array>
  <array name="atomtypes" >
   <dimension dim="1">type</dimension>
   <field type="int">atomspertype</field>
   <field type="string">element</field>
   <field>mass</field>
   <field>valence</field>
   <field type="string">pseudopotential</field>
   <set>
    <rc><c>   1</c><c>C </c><c>     12.01100000</c><c>      4.00000000</c><c> PAW_PBE C 08Apr2002                    </c></rc>
    <rc><c>   2</c><c>O </c><c>     16.00000000</c><c>      6.00000000</c><c> PAW_PBE O 08Apr2002                    </c></rc>
   </set>
  </array>
 </atominfo>
 <structure name="initialpos" >
  <crystal>
   <varray name="basis" >
    <v>       8.00000000       0.00000000       0.00000000 </v>
    <v>       0.00000000       8.00000000       0.00000000 </v>
    <v>       0.00000000       0.00000000       8.00000000 </v>
   </varray>
   <i name="volume">    512.00000000 </i>
   <varray name="rec_basis" >
    <v>       0.12500000       0.00000000       0.00000000 </v>
    <v>       0.00000000       0.12500000       0.00000000 </v>
    <v>       0.00000000       0.00000000       0.12500000 </v>
   </varray>
  </crystal>
  <varray name="positions" >
   <v>       0.50000000       0.50000000       0.50000000 </v>
   <v>       0.50000000       0.50000000       0.64733225 </v>
   <v>       0.50000000       0.50000000       0.35266775 </v>
  </varray>
 </structure>
 <calculation>
  <scstep>
   <time name="dav">    0.50    0.50</time>
   <time name="total">    1.31    1.31</time>
   <energy>
    <i name="alphaZ">      2.08377909 </i>
    <i name="ewald">    170.01906707 </i>
    <i name="hartreedc">   -986.67340058 </i>
    <i name="XCdc">     68.20544515 </i>
    <i name="pawpsdc">    529.82824833 </i>
    <i name="pawaedc">   -534.67809926 </i>
    <i name="eentropy">      0.01159581 </i>
    <i name="bandstr">   -154.47509538 </i>
    <i name="atom">   1011.07184495 </i>
    <i name="e_fr_energy">    105.39338519 </i>
    <i name="e_wo_entrp">    105.38178938 </i>
    <i name="e_0_energy">    105.38951992 </i>
   </energy>
  </scstep>
  <scstep>
   <time name="dav">    0.68    0.68</time>
   <time name="total">    0.68    0.69</time>
   <energy>
    <i name="e_fr_energy">    -13.16391557 </i>
    <i name="e_wo_entrp">    -13.17551138 </i>
    <i name="e_0_energy">    -13.16778084 </i>
   </energy>
  </scstep>
  <scstep>
   <time name="dav">    0.49    0.49</time>
   <time name="total">    0.49    0.54</time>
   <energy>
    <i name="e_fr_energy">    -24.21374580 </i>
    <i name="e_wo_entrp">    -24.23749071 </i>
    <i name="e_0_energy">    -24.22166077 </i>
   </energy>
  </scstep>
  <scstep>
   <time name="dav">    0.53    0.53</time>
   <time name="total">    0.54    0.57</time>
   <energy>
    <i name="e_fr_energy">    -24.49084825 </i>
    <i name="e_wo_entrp">    -24.51403990 </i>
    <i name="e_0_energy">    -24.49857880 </i>
   </energy>
  </scstep>
  <scstep>
   <time name="dav">    0.49    0.49</time>
   <time name="total">    0.62    0.65</time>
   <energy>
    <i name="e_fr_energy">    -24.49210634 </i>
    <i name="e_wo_entrp">    -24.51529796 </i>
    <i name="e_0_energy">    -24.49983688 </i>
   </energy>
  </scstep>
  <scstep>
   <time name="dav">    0.44    0.44</time>
   <time name="total">    1.34    1.36</time>
   <energy>
    <i name="e_fr_energy">    -23.09454065 </i>
    <i name="e_wo_entrp">    -23.11773227 </i>
    <i name="e_0_energy">    -23.10227119 </i>
   </energy>
  </scstep>
  <scstep>
   <time name="dav">    0.44    0.44</time>
   <time name="total">    1.34    1.36</time>
   <energy>
    <i name="e_fr_energy">    -22.98131131 </i>
    <i name="e_wo_entrp">    -23.00450293 </i>
    <i name="e_0_energy">    -22.98904185 </i>
   </energy>
  </scstep>
  <scstep>
   <time name="dav">    0.44    0.44</time>
   <time name="total">    1.33    1.37</time>
   <energy>
    <i name="e_fr_energy">    -22.92869640 </i>
    <i name="e_wo_entrp">    -22.95188803 </i>
    <i name="e_0_energy">    -22.93642694 </i>
   </energy>
  </scstep>
  <scstep>
   <time name="dav">    0.44    0.44</time>
   <time name="total">    1.33    1.38</time>
   <energy>
    <i name="e_fr_energy">    -22.92667857 </i>
    <i name="e_wo_entrp">    -22.94987019 </i>
    <i name="e_0_energy">    -22.93440911 </i>
   </energy>
  </scstep>
  <scstep>
   <time name="dav">    0.49    0.49</time>
   <time name="total">    1.37    1.41</time>
   <energy>
    <i name="e_fr_energy">    -22.92797440 </i>
    <i name="e_wo_entrp">    -22.95116602 </i>
    <i name="e_0_energy">    -22.93570494 </i>
   </energy>
  </scstep>
  <scstep>
   <time name="dav">    0.40    0.40</time>
   <time name="total">    1.28    1.35</time>
   <energy>
    <i name="e_fr_energy">    -22.93290048 </i>
    <i name="e_wo_entrp">    -22.95609210 </i>
    <i name="e_0_energy">    -22.94063102 </i>
   </energy>
  </scstep>
  <scstep>
   <time name="dav">    0.31    0.31</time>
   <time name="total">    1.19    1.26</time>
   <energy>
    <i name="e_fr_energy">    -22.93418114 </i>
    <i name="e_wo_entrp">    -22.95737276 </i>
    <i name="e_0_energy">    -22.94191168 </i>
   </energy>
  </scstep>
  <scstep>
   <time name="dav">    0.44    0.44</time>
   <time name="total">    1.32    1.38</time>
   <energy>
    <i name="e_fr_energy">    -22.93575932 </i>
    <i name="e_wo_entrp">    -22.95895095 </i>
    <i name="e_0_energy">    -22.94348987 </i>
   </energy>
  </scstep>
  <scstep>
   <time name="dav">    0.35    0.35</time>
   <time name="total">    1.23    1.35</time>
   <energy>
    <i name="e_fr_energy">    -22.93593451 </i>
    <i name="e_wo_entrp">    -22.95912613 </i>
    <i name="e_0_energy">    -22.94366505 </i>
   </energy>
  </scstep>
  <scstep>
   <time name="dav">    0.40    0.40</time>
   <time name="total">    1.16    1.21</time>
   <energy>
    <i name="alphaZ">      2.08377909 </i>
    <i name="ewald">    170.01906707 </i>
    <i name="hartreedc">  -1023.91526984 </i>
    <i name="XCdc">     70.25577697 </i>
    <i name="pawpsdc">    708.06628927 </i>
    <i name="pawaedc">   -712.95925992 </i>
    <i name="eentropy">      0.02319162 </i>
    <i name="bandstr">   -247.58144570 </i>
    <i name="atom">   1011.07184495 </i>
    <i name="e_fr_energy">    -22.93602648 </i>
    <i name="e_wo_entrp">    -22.95921810 </i>
    <i name="e_0_energy">    -22.94375702 </i>
   </energy>
  </scstep>
  <parameters_embedded>
   <separator name="dft+d2" >
    <i type="logical" name="LVDW"> F  </i>
   </separator>
  </parameters_embedded>
  <structure>
   <crystal>
    <varray name="basis" >
     <v>       8.00000000       0.00000000       0.00000000 </v>
     <v>       0.00000000       8.00000000       0.00000000 </v>
     <v>       0.00000000       0.00000000       8.00000000 </v>
    </varray>
    <i name="volume">    512.00000000 </i>
    <varray name="rec_basis" >
     <v>       0.12500000       0.00000000       0.00000000 </v>
     <v>       0.00000000       0.12500000       0.00000000 </v>
     <v>       0.00000000       0.00000000       0.12500000 </v>
    </varray>
   </crystal>
   <varray name="positions" >
    <v>       0.50000000       0.50000000       0.50000000 </v>
    <v>       0.50000000       0.50000000       0.64733225 </v>
    <v>       0.50000000       0.50000000       0.35266775 </v>
   </varray>
  </structure>
  <varray name="forces" >
   <v>       0.00000000       0.00000000       0.00000000 </v>
   <v>       0.00000000       0.00000000      -0.18381032 </v>
   <v>       0.00000000       0.00000000       0.18381032 </v>
  </varray>
  <varray name="stress" >
   <v>     -14.89545649       0.00000000       0.00000000 </v>
   <v>       0.00000000     -14.89545649       0.00000000 </v>
   <v>       0.00000000       0.00000000     -14.39441449 </v>
  </varray>
  <energy>
   <i name="e_fr_energy">    -22.93602648 </i>
   <i name="e_wo_entrp">    -22.94375702 </i>
   <i name="e_0_energy">      0.02319162 </i>
  </energy>
  <time name="totalsc">   19.15   19.99</time>
 </calculation>
 <calculation>
  <scstep>
   <time name="dav">    0.44    0.44</time>
   <time name="total">    1.35    1.35</time>
   <energy>
    <i name="alphaZ">      2.08377909 </i>
    <i name="ewald">    175.84506953 </i>
    <i name="hartreedc">  -1027.88863823 </i>
    <i name="XCdc">     70.33209070 </i>
    <i name="pawpsdc">    708.08706887 </i>
    <i name="pawaedc">   -712.98033891 </i>
    <i name="eentropy">      0.02319162 </i>
    <i name="bandstr">   -249.50529261 </i>
    <i name="atom">   1011.07184495 </i>
    <i name="e_fr_energy">    -22.93122499 </i>
    <i name="e_wo_entrp">    -22.95441661 </i>
    <i name="e_0_energy">    -22.93895553 </i>
   </energy>
  </scstep>
  <scstep>
   <time name="dav">    0.49    0.49</time>
   <time name="total">    1.41    1.45</time>
   <energy>
    <i name="e_fr_energy">    -22.93152104 </i>
    <i name="e_wo_entrp">    -22.95471266 </i>
    <i name="e_0_energy">    -22.93925158 </i>
   </energy>
  </scstep>
  <scstep>
   <time name="dav">    0.59    0.59</time>
   <time name="total">    1.56    1.60</time>
   <energy>
    <i name="e_fr_energy">    -22.93122433 </i>
    <i name="e_wo_entrp">    -22.95441595 </i>
    <i name="e_0_energy">    -22.93895487 </i>
   </energy>
  </scstep>
  <scstep>
   <time name="dav">    0.35    0.35</time>
   <time name="total">    1.15    1.23</time>
   <energy>
    <i name="alphaZ">      2.08377909 </i>
    <i name="ewald">    175.84506953 </i>
    <i name="hartreedc">  -1029.15590690 </i>
    <i name="XCdc">     70.39589487 </i>
    <i name="pawpsdc">    713.46593370 </i>
    <i name="pawaedc">   -718.38530029 </i>
    <i name="eentropy">      0.02319162 </i>
    <i name="bandstr">   -248.27572306 </i>
    <i name="atom">   1011.07184495 </i>
    <i name="e_fr_energy">    -22.93121647 </i>
    <i name="e_wo_entrp">    -22.95440809 </i>
    <i name="e_0_energy">    -22.93894701 </i>
   </energy>
  </scstep>
  <structure>
   <crystal>
    <varray name="basis" >
     <v>       8.00000000       0.00000000       0.00000000 </v>
     <v>       0.00000000       8.00000000       0.00000000 </v>
     <v>       0.00000000       0.00000000       8.00000000 </v>
    </varray>
    <i name="volume">    512.00000000 </i>
    <varray name="rec_basis" >
     <v>       0.12500000       0.00000000       0.00000000 </v>
     <v>       0.00000000       0.12500000       0.00000000 </v>
     <v>       0.00000000       0.00000000       0.12500000 </v>
    </varray>
   </crystal>
   <varray name="positions" >
    <v>       0.50000000       0.50000000       0.50000000 </v>
    <v>       0.50000000       0.50000000       0.64622381 </v>
    <v>       0.50000000       0.50000000       0.35377619 </v>
   </varray>
  </structure>
  <varray name="forces" >
   <v>       0.00000000       0.00000000       0.00000000 </v>
   <v>       0.00000000       0.00000000       0.73945145 </v>
   <v>       0.00000000       0.00000000      -0.73945145 </v>
  </varray>
  <varray name="stress" >
   <v>     -14.87012267       0.00000000       0.00000000 </v>
   <v>       0.00000000     -14.87012267       0.00000000 </v>
   <v>       0.00000000       0.00000000      -7.72149962 </v>
  </varray>
  <energy>
   <i name="e_fr_energy">    -22.93121647 </i>
   <i name="e_wo_entrp">    -22.93894701 </i>
   <i name="e_0_energy">      0.02319162 </i>
  </energy>
  <time name="totalsc">    7.13    7.47</time>
 </calculation>
 <calculation>
  <scstep>
   <time name="dav">    0.39    0.40</time>
   <time name="total">    1.31    1.32</time>
   <energy>
    <i name="alphaZ">      2.08377909 </i>
    <i name="ewald">    171.17137365 </i>
    <i name="hartreedc">  -1025.97036648 </i>
    <i name="XCdc">     70.33480199 </i>
    <i name="pawpsdc">    713.74330180 </i>
    <i name="pawaedc">   -718.66421420 </i>
    <i name="eentropy">      0.02319162 </i>
    <i name="bandstr">   -246.73016017 </i>
    <i name="atom">   1011.07184495 </i>
    <i name="e_fr_energy">    -22.93644775 </i>
    <i name="e_wo_entrp">    -22.95963937 </i>
    <i name="e_0_energy">    -22.94417829 </i>
   </energy>
  </scstep>
  <scstep>
   <time name="dav">    0.49    0.49</time>
   <time name="total">    1.41    1.45</time>
   <energy>
    <i name="e_fr_energy">    -22.93657492 </i>
    <i name="e_wo_entrp">    -22.95976655 </i>
    <i name="e_0_energy">    -22.94430547 </i>
   </energy>
  </scstep>
  <scstep>
   <time name="dav">    0.49    0.49</time>
   <time name="total">    1.40    1.43</time>
   <energy>
    <i name="e_fr_energy">    -22.93638598 </i>
    <i name="e_wo_entrp">    -22.95957760 </i>
    <i name="e_0_energy">    -22.94411652 </i>
   </energy>
  </scstep>
  <scstep>
   <time name="dav">    0.35    0.35</time>
   <time name="total">    1.13    1.21</time>
   <energy>
    <i name="alphaZ">      2.08377909 </i>
    <i name="ewald">    171.17137365 </i>
    <i name="hartreedc">  -1024.95751509 </i>
    <i name="XCdc">     70.28321845 </i>
    <i name="pawpsdc">    709.55919915 </i>
    <i name="pawaedc">   -714.45952647 </i>
    <i name="eentropy">      0.02319162 </i>
    <i name="bandstr">   -247.71194586 </i>
    <i name="atom">   1011.07184495 </i>
    <i name="e_fr_energy">    -22.93638051 </i>
    <i name="e_wo_entrp">    -22.95957213 </i>
    <i name="e_0_energy">    -22.94411105 </i>
   </energy>
  </scstep>
  <structure>
   <crystal>
    <varray name="basis" >
     <v>       8.00000000       0.00000000       0.00000000 </v>
     <v>       0.00000000       8.00000000       0.00000000 </v>
     <v>       0.00000000       0.00000000       8.00000000 </v>
    </varray>
    <i name="volume">    512.00000000 </i>
    <varray name="rec_basis" >
     <v>       0.12500000       0.00000000       0.00000000 </v>
     <v>       0.00000000       0.12500000       0.00000000 </v>
     <v>       0.00000000       0.00000000       0.12500000 </v>
    </varray>
   </crystal>
   <varray name="positions" >
    <v>       0.50000000       0.50000000       0.50000000 </v>
    <v>       0.50000000       0.50000000       0.64711157 </v>
    <v>       0.50000000       0.50000000       0.35288843 </v>
   </varray>
  </structure>
  <varray name="forces" >
   <v>       0.00000000       0.00000000       0.00000000 </v>
   <v>       0.00000000       0.00000000      -0.00723252 </v>
   <v>       0.00000000       0.00000000       0.00723252 </v>
  </varray>
  <varray name="stress" >
   <v>     -14.91431986       0.00000000       0.00000000 </v>
   <v>       0.00000000     -14.91431986       0.00000000 </v>
   <v>       0.00000000       0.00000000     -13.10513123 </v>
  </varray>
  <energy>
   <i name="e_fr_energy">    -22.93638051 </i>
   <i name="e_wo_entrp">    -22.94411105 </i>
   <i name="e_0_energy">      0.02319162 </i>
  </energy>
  <time name="totalsc">    6.75    7.05</time>
  <eigenvalues>
   <array>
    <dimension dim="1">band</dimension>
    <dimension dim="2">kpoint</dimension>
    <dimension dim="3">spin</dimension>
    <field>eigene</field>
    <field>occ</field>
    <set>
     <set comment="spin 1">
      <set comment="kpoint 1">
       <r>  -28.7852    1.0000 </r>
       <r>  -27.7719    1.0000 </r>
       <r>  -13.3884    1.0000 </r>
       <r>  -12.2214    1.0000 </r>
       <r>  -12.2214    1.0000 </r>
       <r>  -12.1774    1.0000 </r>
       <r>   -8.6451    1.0000 </r>
       <r>   -8.6451    1.0000 </r>
       <r>   -0.8707    0.0000 </r>
       <r>   -0.1422    0.0000 </r>
       <r>   -0.1422    0.0000 </r>
       <r>    1.3195    0.0000 </r>
      </set>
     </set>
    </set>
   </array>
  </eigenvalues>
  <separator name="orbital magnetization" >
   <v name="MAGDIPOLOUT">      0.00000000      0.00000000      0.00000000</v>
  </separator>
 </calculation>
 <structure name="finalpos" >
  <crystal>
   <varray name="basis" >
    <v>       8.00000000       0.00000000       0.00000000 </v>
    <v>       0.00000000       8.00000000       0.00000000 </v>
    <v>       0.00000000       0.00000000       8.00000000 </v>
   </varray>
   <i name="volume">    512.00000000 </i>
   <varray name="rec_basis" >
    <v>       0.12500000       0.00000000       0.00000000 </v>
    <v>       0.00000000       0.12500000       0.00000000 </v>
    <v>       0.00000000       0.00000000       0.12500000 </v>
   </varray>
  </crystal>
  <varray name="positions" >
   <v>       0.50000000       0.50000000       0.50000000 </v>
   <v>       0.50000000       0.50000000       0.64711157 </v>
   <v>       0.50000000       0.50000000       0.35288843 </v>
  </varray>
 </structure>
</modeling>
